PSF EXT CMAP XPLOR

         3 !NTITLE
* GENERATED BY CHARMM-GUI (HTTP://WWW.CHARMM-GUI.ORG) V3.7 ON FEB, 18. 2025. JOB
* GET A DIFFERENT CONFORMATION FOR LIPIDS PENETRATING PROTEIN / CHOL            
*  DATE:     2/18/25     11:41:27      CREATED BY USER: charmm-gui              

     22252 !NATOM
         1 MEMB     1        CHL1     C3       CRL1     0.140000       12.0110           0
         2 MEMB     1        CHL1     H3       HGA1     0.900000E-01   1.00800           0
         3 MEMB     1        CHL1     O3       OHL     -0.660000       15.9994           0
         4 MEMB     1        CHL1     H3'      HOL      0.430000       1.00800           0
         5 MEMB     1        CHL1     C4       CRL2    -0.180000       12.0110           0
         6 MEMB     1        CHL1     H4A      HGA2     0.900000E-01   1.00800           0
         7 MEMB     1        CHL1     H4B      HGA2     0.900000E-01   1.00800           0
         8 MEMB     1        CHL1     C5       CEL1      0.00000       12.0110           0
         9 MEMB     1        CHL1     C6       CEL1    -0.150000       12.0110           0
        10 MEMB     1        CHL1     H6       HEL1     0.150000       1.00800           0
        11 MEMB     1        CHL1     C7       CRL2    -0.180000       12.0110           0
        12 MEMB     1        CHL1     H7A      HGA2     0.900000E-01   1.00800           0
        13 MEMB     1        CHL1     H7B      HGA2     0.900000E-01   1.00800           0
        14 MEMB     1        CHL1     C8       CRL1    -0.900000E-01   12.0110           0
        15 MEMB     1        CHL1     H8       HGA1     0.900000E-01   1.00800           0
        16 MEMB     1        CHL1     C14      CRL1    -0.900000E-01   12.0110           0
        17 MEMB     1        CHL1     H14      HGA1     0.900000E-01   1.00800           0
        18 MEMB     1        CHL1     C15      CRL2    -0.180000       12.0110           0
        19 MEMB     1        CHL1     H15A     HGA2     0.900000E-01   1.00800           0
        20 MEMB     1        CHL1     H15B     HGA2     0.900000E-01   1.00800           0
        21 MEMB     1        CHL1     C16      CRL2    -0.180000       12.0110           0
        22 MEMB     1        CHL1     H16A     HGA2     0.900000E-01   1.00800           0
        23 MEMB     1        CHL1     H16B     HGA2     0.900000E-01   1.00800           0
        24 MEMB     1        CHL1     C17      CRL1    -0.900000E-01   12.0110           0
        25 MEMB     1        CHL1     H17      HGA1     0.900000E-01   1.00800           0
        26 MEMB     1        CHL1     C13      CRL1      0.00000       12.0110           0
        27 MEMB     1        CHL1     C18      CTL3    -0.270000       12.0110           0
        28 MEMB     1        CHL1     H18A     HAL3     0.900000E-01   1.00800           0
        29 MEMB     1        CHL1     H18B     HAL3     0.900000E-01   1.00800           0
        30 MEMB     1        CHL1     H18C     HAL3     0.900000E-01   1.00800           0
        31 MEMB     1        CHL1     C12      CRL2    -0.180000       12.0110           0
        32 MEMB     1        CHL1     H12A     HGA2     0.900000E-01   1.00800           0
        33 MEMB     1        CHL1     H12B     HGA2     0.900000E-01   1.00800           0
        34 MEMB     1        CHL1     C11      CRL2    -0.180000       12.0110           0
        35 MEMB     1        CHL1     H11A     HGA2     0.900000E-01   1.00800           0
        36 MEMB     1        CHL1     H11B     HGA2     0.900000E-01   1.00800           0
        37 MEMB     1        CHL1     C9       CRL1    -0.900000E-01   12.0110           0
        38 MEMB     1        CHL1     H9       HGA1     0.900000E-01   1.00800           0
        39 MEMB     1        CHL1     C10      CRL1      0.00000       12.0110           0
        40 MEMB     1        CHL1     C19      CTL3    -0.270000       12.0110           0
        41 MEMB     1        CHL1     H19A     HAL3     0.900000E-01   1.00800           0
        42 MEMB     1        CHL1     H19B     HAL3     0.900000E-01   1.00800           0
        43 MEMB     1        CHL1     H19C     HAL3     0.900000E-01   1.00800           0
        44 MEMB     1        CHL1     C1       CRL2    -0.180000       12.0110           0
        45 MEMB     1        CHL1     H1A      HGA2     0.900000E-01   1.00800           0
        46 MEMB     1        CHL1     H1B      HGA2     0.900000E-01   1.00800           0
        47 MEMB     1        CHL1     C2       CRL2    -0.180000       12.0110           0
        48 MEMB     1        CHL1     H2A      HGA2     0.900000E-01   1.00800           0
        49 MEMB     1        CHL1     H2B      HGA2     0.900000E-01   1.00800           0
        50 MEMB     1        CHL1     C20      CTL1    -0.900000E-01   12.0110           0
        51 MEMB     1        CHL1     H20      HAL1     0.900000E-01   1.00800           0
        52 MEMB     1        CHL1     C21      CTL3    -0.270000       12.0110           0
        53 MEMB     1        CHL1     H21A     HAL3     0.900000E-01   1.00800           0
        54 MEMB     1        CHL1     H21B     HAL3     0.900000E-01   1.00800           0
        55 MEMB     1        CHL1     H21C     HAL3     0.900000E-01   1.00800           0
        56 MEMB     1        CHL1     C22      CTL2    -0.180000       12.0110           0
        57 MEMB     1        CHL1     H22A     HAL2     0.900000E-01   1.00800           0
        58 MEMB     1        CHL1     H22B     HAL2     0.900000E-01   1.00800           0
        59 MEMB     1        CHL1     C23      CTL2    -0.180000       12.0110           0
        60 MEMB     1        CHL1     H23A     HAL2     0.900000E-01   1.00800           0
        61 MEMB     1        CHL1     H23B     HAL2     0.900000E-01   1.00800           0
        62 MEMB     1        CHL1     C24      CTL2    -0.180000       12.0110           0
        63 MEMB     1        CHL1     H24A     HAL2     0.900000E-01   1.00800           0
        64 MEMB     1        CHL1     H24B     HAL2     0.900000E-01   1.00800           0
        65 MEMB     1        CHL1     C25      CTL1    -0.900000E-01   12.0110           0
        66 MEMB     1        CHL1     H25      HAL1     0.900000E-01   1.00800           0
        67 MEMB     1        CHL1     C26      CTL3    -0.270000       12.0110           0
        68 MEMB     1        CHL1     H26A     HAL3     0.900000E-01   1.00800           0
        69 MEMB     1        CHL1     H26B     HAL3     0.900000E-01   1.00800           0
        70 MEMB     1        CHL1     H26C     HAL3     0.900000E-01   1.00800           0
        71 MEMB     1        CHL1     C27      CTL3    -0.270000       12.0110           0
        72 MEMB     1        CHL1     H27A     HAL3     0.900000E-01   1.00800           0
        73 MEMB     1        CHL1     H27B     HAL3     0.900000E-01   1.00800           0
        74 MEMB     1        CHL1     H27C     HAL3     0.900000E-01   1.00800           0
        75 MEMB     2        SAPC     N        NTL     -0.600000       14.0070           0
        76 MEMB     2        SAPC     C12      CTL2    -0.100000       12.0110           0
        77 MEMB     2        SAPC     H12A     HL       0.250000       1.00800           0
        78 MEMB     2        SAPC     H12B     HL       0.250000       1.00800           0
        79 MEMB     2        SAPC     C13      CTL5    -0.350000       12.0110           0
        80 MEMB     2        SAPC     H13A     HL       0.250000       1.00800           0
        81 MEMB     2        SAPC     H13B     HL       0.250000       1.00800           0
        82 MEMB     2        SAPC     H13C     HL       0.250000       1.00800           0
        83 MEMB     2        SAPC     C14      CTL5    -0.350000       12.0110           0
        84 MEMB     2        SAPC     H14A     HL       0.250000       1.00800           0
        85 MEMB     2        SAPC     H14B     HL       0.250000       1.00800           0
        86 MEMB     2        SAPC     H14C     HL       0.250000       1.00800           0
        87 MEMB     2        SAPC     C15      CTL5    -0.350000       12.0110           0
        88 MEMB     2        SAPC     H15A     HL       0.250000       1.00800           0
        89 MEMB     2        SAPC     H15B     HL       0.250000       1.00800           0
        90 MEMB     2        SAPC     H15C     HL       0.250000       1.00800           0
        91 MEMB     2        SAPC     C11      CTL2    -0.800000E-01   12.0110           0
        92 MEMB     2        SAPC     H11A     HAL2     0.900000E-01   1.00800           0
        93 MEMB     2        SAPC     H11B     HAL2     0.900000E-01   1.00800           0
        94 MEMB     2        SAPC     P        PL        1.50000       30.9740           0
        95 MEMB     2        SAPC     O13      O2L     -0.780000       15.9994           0
        96 MEMB     2        SAPC     O14      O2L     -0.780000       15.9994           0
        97 MEMB     2        SAPC     O12      OSLP    -0.570000       15.9994           0
        98 MEMB     2        SAPC     O11      OSLP    -0.570000       15.9994           0
        99 MEMB     2        SAPC     C1       CTL2    -0.800000E-01   12.0110           0
       100 MEMB     2        SAPC     HA       HAL2     0.900000E-01   1.00800           0
       101 MEMB     2        SAPC     HB       HAL2     0.900000E-01   1.00800           0
       102 MEMB     2        SAPC     C2       CTL1     0.170000       12.0110           0
       103 MEMB     2        SAPC     HS       HAL1     0.900000E-01   1.00800           0
       104 MEMB     2        SAPC     O21      OSL     -0.490000       15.9994           0
       105 MEMB     2        SAPC     C21      CL       0.900000       12.0110           0
       106 MEMB     2        SAPC     O22      OBL     -0.630000       15.9994           0
       107 MEMB     2        SAPC     C22      CTL2    -0.220000       12.0110           0
       108 MEMB     2        SAPC     H2R      HAL2     0.900000E-01   1.00800           0
       109 MEMB     2        SAPC     H2S      HAL2     0.900000E-01   1.00800           0
       110 MEMB     2        SAPC     C3       CTL2     0.800000E-01   12.0110           0
       111 MEMB     2        SAPC     HX       HAL2     0.900000E-01   1.00800           0
       112 MEMB     2        SAPC     HY       HAL2     0.900000E-01   1.00800           0
       113 MEMB     2        SAPC     O31      OSL     -0.490000       15.9994           0
       114 MEMB     2        SAPC     C31      CL       0.900000       12.0110           0
       115 MEMB     2        SAPC     O32      OBL     -0.630000       15.9994           0
       116 MEMB     2        SAPC     C32      CTL2    -0.220000       12.0110           0
       117 MEMB     2        SAPC     H2X      HAL2     0.900000E-01   1.00800           0
       118 MEMB     2        SAPC     H2Y      HAL2     0.900000E-01   1.00800           0
       119 MEMB     2        SAPC     C23      CTL2    -0.180000       12.0110           0
       120 MEMB     2        SAPC     H3R      HAL2     0.900000E-01   1.00800           0
       121 MEMB     2        SAPC     H3S      HAL2     0.900000E-01   1.00800           0
       122 MEMB     2        SAPC     C24      CTL2    -0.180000       12.0110           0
       123 MEMB     2        SAPC     H4R      HAL2     0.900000E-01   1.00800           0
       124 MEMB     2        SAPC     H4S      HAL2     0.900000E-01   1.00800           0
       125 MEMB     2        SAPC     C25      CEL1    -0.150000       12.0110           0
       126 MEMB     2        SAPC     H5R      HEL1     0.150000       1.00800           0
       127 MEMB     2        SAPC     C26      CEL1    -0.150000       12.0110           0
       128 MEMB     2        SAPC     H6R      HEL1     0.150000       1.00800           0
       129 MEMB     2        SAPC     C27      CTL2    -0.180000       12.0110           0
       130 MEMB     2        SAPC     H7R      HAL2     0.900000E-01   1.00800           0
       131 MEMB     2        SAPC     H7S      HAL2     0.900000E-01   1.00800           0
       132 MEMB     2        SAPC     C28      CEL1    -0.150000       12.0110           0
       133 MEMB     2        SAPC     H8R      HEL1     0.150000       1.00800           0
       134 MEMB     2        SAPC     C29      CEL1    -0.150000       12.0110           0
       135 MEMB     2        SAPC     H9R      HEL1     0.150000       1.00800           0
       136 MEMB     2        SAPC     C210     CTL2    -0.180000       12.0110           0
       137 MEMB     2        SAPC     H10R     HAL2     0.900000E-01   1.00800           0
       138 MEMB     2        SAPC     H10S     HAL2     0.900000E-01   1.00800           0
       139 MEMB     2        SAPC     C211     CEL1    -0.150000       12.0110           0
       140 MEMB     2        SAPC     H11R     HEL1     0.150000       1.00800           0
       141 MEMB     2        SAPC     C212     CEL1    -0.150000       12.0110           0
       142 MEMB     2        SAPC     H12R     HEL1     0.150000       1.00800           0
       143 MEMB     2        SAPC     C213     CTL2    -0.180000       12.0110           0
       144 MEMB     2        SAPC     H13R     HAL2     0.900000E-01   1.00800           0
       145 MEMB     2        SAPC     H13S     HAL2     0.900000E-01   1.00800           0
       146 MEMB     2        SAPC     C214     CEL1    -0.150000       12.0110           0
       147 MEMB     2        SAPC     H14R     HEL1     0.150000       1.00800           0
       148 MEMB     2        SAPC     C215     CEL1    -0.150000       12.0110           0
       149 MEMB     2        SAPC     H15R     HEL1     0.150000       1.00800           0
       150 MEMB     2        SAPC     C216     CTL2    -0.180000       12.0110           0
       151 MEMB     2        SAPC     H16R     HAL2     0.900000E-01   1.00800           0
       152 MEMB     2        SAPC     H16S     HAL2     0.900000E-01   1.00800           0
       153 MEMB     2        SAPC     C217     CTL2    -0.180000       12.0110           0
       154 MEMB     2        SAPC     H17R     HAL2     0.900000E-01   1.00800           0
       155 MEMB     2        SAPC     H17S     HAL2     0.900000E-01   1.00800           0
       156 MEMB     2        SAPC     C218     CTL2    -0.270000       12.0110           0
       157 MEMB     2        SAPC     H18R     HAL2     0.900000E-01   1.00800           0
       158 MEMB     2        SAPC     H18S     HAL2     0.900000E-01   1.00800           0
       159 MEMB     2        SAPC     C219     CTL2    -0.180000       12.0110           0
       160 MEMB     2        SAPC     H19R     HAL2     0.900000E-01   1.00800           0
       161 MEMB     2        SAPC     H19S     HAL2     0.900000E-01   1.00800           0
       162 MEMB     2        SAPC     C220     CTL3    -0.180000       12.0110           0
       163 MEMB     2        SAPC     H20R     HAL3     0.900000E-01   1.00800           0
       164 MEMB     2        SAPC     H20S     HAL3     0.900000E-01   1.00800           0
       165 MEMB     2        SAPC     H20T     HAL3     0.900000E-01   1.00800           0
       166 MEMB     2        SAPC     C33      CTL2    -0.180000       12.0110           0
       167 MEMB     2        SAPC     H3X      HAL2     0.900000E-01   1.00800           0
       168 MEMB     2        SAPC     H3Y      HAL2     0.900000E-01   1.00800           0
       169 MEMB     2        SAPC     C34      CTL2    -0.180000       12.0110           0
       170 MEMB     2        SAPC     H4X      HAL2     0.900000E-01   1.00800           0
       171 MEMB     2        SAPC     H4Y      HAL2     0.900000E-01   1.00800           0
       172 MEMB     2        SAPC     C35      CTL2    -0.180000       12.0110           0
       173 MEMB     2        SAPC     H5X      HAL2     0.900000E-01   1.00800           0
       174 MEMB     2        SAPC     H5Y      HAL2     0.900000E-01   1.00800           0
       175 MEMB     2        SAPC     C36      CTL2    -0.180000       12.0110           0
       176 MEMB     2        SAPC     H6X      HAL2     0.900000E-01   1.00800           0
       177 MEMB     2        SAPC     H6Y      HAL2     0.900000E-01   1.00800           0
       178 MEMB     2        SAPC     C37      CTL2    -0.180000       12.0110           0
       179 MEMB     2        SAPC     H7X      HAL2     0.900000E-01   1.00800           0
       180 MEMB     2        SAPC     H7Y      HAL2     0.900000E-01   1.00800           0
       181 MEMB     2        SAPC     C38      CTL2    -0.180000       12.0110           0
       182 MEMB     2        SAPC     H8X      HAL2     0.900000E-01   1.00800           0
       183 MEMB     2        SAPC     H8Y      HAL2     0.900000E-01   1.00800           0
       184 MEMB     2        SAPC     C39      CTL2    -0.180000       12.0110           0
       185 MEMB     2        SAPC     H9X      HAL2     0.900000E-01   1.00800           0
       186 MEMB     2        SAPC     H9Y      HAL2     0.900000E-01   1.00800           0
       187 MEMB     2        SAPC     C310     CTL2    -0.180000       12.0110           0
       188 MEMB     2        SAPC     H10X     HAL2     0.900000E-01   1.00800           0
       189 MEMB     2        SAPC     H10Y     HAL2     0.900000E-01   1.00800           0
       190 MEMB     2        SAPC     C311     CTL2    -0.180000       12.0110           0
       191 MEMB     2        SAPC     H11X     HAL2     0.900000E-01   1.00800           0
       192 MEMB     2        SAPC     H11Y     HAL2     0.900000E-01   1.00800           0
       193 MEMB     2        SAPC     C312     CTL2    -0.180000       12.0110           0
       194 MEMB     2        SAPC     H12X     HAL2     0.900000E-01   1.00800           0
       195 MEMB     2        SAPC     H12Y     HAL2     0.900000E-01   1.00800           0
       196 MEMB     2        SAPC     C313     CTL2    -0.180000       12.0110           0
       197 MEMB     2        SAPC     H13X     HAL2     0.900000E-01   1.00800           0
       198 MEMB     2        SAPC     H13Y     HAL2     0.900000E-01   1.00800           0
       199 MEMB     2        SAPC     C314     CTL2    -0.180000       12.0110           0
       200 MEMB     2        SAPC     H14X     HAL2     0.900000E-01   1.00800           0
       201 MEMB     2        SAPC     H14Y     HAL2     0.900000E-01   1.00800           0
       202 MEMB     2        SAPC     C315     CTL2    -0.180000       12.0110           0
       203 MEMB     2        SAPC     H15X     HAL2     0.900000E-01   1.00800           0
       204 MEMB     2        SAPC     H15Y     HAL2     0.900000E-01   1.00800           0
       205 MEMB     2        SAPC     C316     CTL2    -0.180000       12.0110           0
       206 MEMB     2        SAPC     H16X     HAL2     0.900000E-01   1.00800           0
       207 MEMB     2        SAPC     H16Y     HAL2     0.900000E-01   1.00800           0
       208 MEMB     2        SAPC     C317     CTL2    -0.180000       12.0110           0
       209 MEMB     2        SAPC     H17X     HAL2     0.900000E-01   1.00800           0
       210 MEMB     2        SAPC     H17Y     HAL2     0.900000E-01   1.00800           0
       211 MEMB     2        SAPC     C318     CTL3    -0.270000       12.0110           0
       212 MEMB     2        SAPC     H18X     HAL3     0.900000E-01   1.00800           0
       213 MEMB     2        SAPC     H18Y     HAL3     0.900000E-01   1.00800           0
       214 MEMB     2        SAPC     H18Z     HAL3     0.900000E-01   1.00800           0
       215 MEMB     3        SLPC     N        NTL     -0.600000       14.0070           0
       216 MEMB     3        SLPC     C13      CTL5    -0.350000       12.0110           0
       217 MEMB     3        SLPC     H13A     HL       0.250000       1.00800           0
       218 MEMB     3        SLPC     H13B     HL       0.250000       1.00800           0
       219 MEMB     3        SLPC     H13C     HL       0.250000       1.00800           0
       220 MEMB     3        SLPC     C14      CTL5    -0.350000       12.0110           0
       221 MEMB     3        SLPC     H14A     HL       0.250000       1.00800           0
       222 MEMB     3        SLPC     H14B     HL       0.250000       1.00800           0
       223 MEMB     3        SLPC     H14C     HL       0.250000       1.00800           0
       224 MEMB     3        SLPC     C15      CTL5    -0.350000       12.0110           0
       225 MEMB     3        SLPC     H15A     HL       0.250000       1.00800           0
       226 MEMB     3        SLPC     H15B     HL       0.250000       1.00800           0
       227 MEMB     3        SLPC     H15C     HL       0.250000       1.00800           0
       228 MEMB     3        SLPC     C12      CTL2    -0.100000       12.0110           0
       229 MEMB     3        SLPC     H12A     HL       0.250000       1.00800           0
       230 MEMB     3        SLPC     H12B     HL       0.250000       1.00800           0
       231 MEMB     3        SLPC     C11      CTL2    -0.800000E-01   12.0110           0
       232 MEMB     3        SLPC     H11A     HAL2     0.900000E-01   1.00800           0
       233 MEMB     3        SLPC     H11B     HAL2     0.900000E-01   1.00800           0
       234 MEMB     3        SLPC     P        PL        1.50000       30.9740           0
       235 MEMB     3        SLPC     O13      O2L     -0.780000       15.9994           0
       236 MEMB     3        SLPC     O14      O2L     -0.780000       15.9994           0
       237 MEMB     3        SLPC     O12      OSLP    -0.570000       15.9994           0
       238 MEMB     3        SLPC     O11      OSLP    -0.570000       15.9994           0
       239 MEMB     3        SLPC     C1       CTL2    -0.800000E-01   12.0110           0
       240 MEMB     3        SLPC     HA       HAL2     0.900000E-01   1.00800           0
       241 MEMB     3        SLPC     HB       HAL2     0.900000E-01   1.00800           0
       242 MEMB     3        SLPC     C2       CTL1     0.170000       12.0110           0
       243 MEMB     3        SLPC     HS       HAL1     0.900000E-01   1.00800           0
       244 MEMB     3        SLPC     O21      OSL     -0.490000       15.9994           0
       245 MEMB     3        SLPC     C21      CL       0.900000       12.0110           0
       246 MEMB     3        SLPC     O22      OBL     -0.630000       15.9994           0
       247 MEMB     3        SLPC     C22      CTL2    -0.220000       12.0110           0
       248 MEMB     3        SLPC     H2R      HAL2     0.900000E-01   1.00800           0
       249 MEMB     3        SLPC     H2S      HAL2     0.900000E-01   1.00800           0
       250 MEMB     3        SLPC     C3       CTL2     0.800000E-01   12.0110           0
       251 MEMB     3        SLPC     HX       HAL2     0.900000E-01   1.00800           0
       252 MEMB     3        SLPC     HY       HAL2     0.900000E-01   1.00800           0
       253 MEMB     3        SLPC     O31      OSL     -0.490000       15.9994           0
       254 MEMB     3        SLPC     C31      CL       0.900000       12.0110           0
       255 MEMB     3        SLPC     O32      OBL     -0.630000       15.9994           0
       256 MEMB     3        SLPC     C32      CTL2    -0.220000       12.0110           0
       257 MEMB     3        SLPC     H2X      HAL2     0.900000E-01   1.00800           0
       258 MEMB     3        SLPC     H2Y      HAL2     0.900000E-01   1.00800           0
       259 MEMB     3        SLPC     C23      CTL2    -0.180000       12.0110           0
       260 MEMB     3        SLPC     H3R      HAL2     0.900000E-01   1.00800           0
       261 MEMB     3        SLPC     H3S      HAL2     0.900000E-01   1.00800           0
       262 MEMB     3        SLPC     C24      CTL2    -0.180000       12.0110           0
       263 MEMB     3        SLPC     H4R      HAL2     0.900000E-01   1.00800           0
       264 MEMB     3        SLPC     H4S      HAL2     0.900000E-01   1.00800           0
       265 MEMB     3        SLPC     C25      CTL2    -0.180000       12.0110           0
       266 MEMB     3        SLPC     H5R      HAL2     0.900000E-01   1.00800           0
       267 MEMB     3        SLPC     H5S      HAL2     0.900000E-01   1.00800           0
       268 MEMB     3        SLPC     C26      CTL2    -0.180000       12.0110           0
       269 MEMB     3        SLPC     H6R      HAL2     0.900000E-01   1.00800           0
       270 MEMB     3        SLPC     H6S      HAL2     0.900000E-01   1.00800           0
       271 MEMB     3        SLPC     C27      CTL2    -0.180000       12.0110           0
       272 MEMB     3        SLPC     H7R      HAL2     0.900000E-01   1.00800           0
       273 MEMB     3        SLPC     H7S      HAL2     0.900000E-01   1.00800           0
       274 MEMB     3        SLPC     C28      CTL2    -0.180000       12.0110           0
       275 MEMB     3        SLPC     H8R      HAL2     0.900000E-01   1.00800           0
       276 MEMB     3        SLPC     H8S      HAL2     0.900000E-01   1.00800           0
       277 MEMB     3        SLPC     C29      CEL1    -0.150000       12.0110           0
       278 MEMB     3        SLPC     H9R      HEL1     0.150000       1.00800           0
       279 MEMB     3        SLPC     C210     CEL1    -0.150000       12.0110           0
       280 MEMB     3        SLPC     H10R     HEL1     0.150000       1.00800           0
       281 MEMB     3        SLPC     C211     CTL2    -0.180000       12.0110           0
       282 MEMB     3        SLPC     H11R     HAL2     0.900000E-01   1.00800           0
       283 MEMB     3        SLPC     H11S     HAL2     0.900000E-01   1.00800           0
       284 MEMB     3        SLPC     C212     CEL1    -0.150000       12.0110           0
       285 MEMB     3        SLPC     H12R     HEL1     0.150000       1.00800           0
       286 MEMB     3        SLPC     C213     CEL1    -0.150000       12.0110           0
       287 MEMB     3        SLPC     H13R     HEL1     0.150000       1.00800           0
       288 MEMB     3        SLPC     C214     CTL2    -0.180000       12.0110           0
       289 MEMB     3        SLPC     H14R     HAL2     0.900000E-01   1.00800           0
       290 MEMB     3        SLPC     H14S     HAL2     0.900000E-01   1.00800           0
       291 MEMB     3        SLPC     C215     CTL2    -0.180000       12.0110           0
       292 MEMB     3        SLPC     H15R     HAL2     0.900000E-01   1.00800           0
       293 MEMB     3        SLPC     H15S     HAL2     0.900000E-01   1.00800           0
       294 MEMB     3        SLPC     C216     CTL2    -0.180000       12.0110           0
       295 MEMB     3        SLPC     H16R     HAL2     0.900000E-01   1.00800           0
       296 MEMB     3        SLPC     H16S     HAL2     0.900000E-01   1.00800           0
       297 MEMB     3        SLPC     C217     CTL2    -0.180000       12.0110           0
       298 MEMB     3        SLPC     H17R     HAL2     0.900000E-01   1.00800           0
       299 MEMB     3        SLPC     H17S     HAL2     0.900000E-01   1.00800           0
       300 MEMB     3        SLPC     C218     CTL3    -0.270000       12.0110           0
       301 MEMB     3        SLPC     H18R     HAL3     0.900000E-01   1.00800           0
       302 MEMB     3        SLPC     H18S     HAL3     0.900000E-01   1.00800           0
       303 MEMB     3        SLPC     H18T     HAL3     0.900000E-01   1.00800           0
       304 MEMB     3        SLPC     C33      CTL2    -0.180000       12.0110           0
       305 MEMB     3        SLPC     H3X      HAL2     0.900000E-01   1.00800           0
       306 MEMB     3        SLPC     H3Y      HAL2     0.900000E-01   1.00800           0
       307 MEMB     3        SLPC     C34      CTL2    -0.180000       12.0110           0
       308 MEMB     3        SLPC     H4X      HAL2     0.900000E-01   1.00800           0
       309 MEMB     3        SLPC     H4Y      HAL2     0.900000E-01   1.00800           0
       310 MEMB     3        SLPC     C35      CTL2    -0.180000       12.0110           0
       311 MEMB     3        SLPC     H5X      HAL2     0.900000E-01   1.00800           0
       312 MEMB     3        SLPC     H5Y      HAL2     0.900000E-01   1.00800           0
       313 MEMB     3        SLPC     C36      CTL2    -0.180000       12.0110           0
       314 MEMB     3        SLPC     H6X      HAL2     0.900000E-01   1.00800           0
       315 MEMB     3        SLPC     H6Y      HAL2     0.900000E-01   1.00800           0
       316 MEMB     3        SLPC     C37      CTL2    -0.180000       12.0110           0
       317 MEMB     3        SLPC     H7X      HAL2     0.900000E-01   1.00800           0
       318 MEMB     3        SLPC     H7Y      HAL2     0.900000E-01   1.00800           0
       319 MEMB     3        SLPC     C38      CTL2    -0.180000       12.0110           0
       320 MEMB     3        SLPC     H8X      HAL2     0.900000E-01   1.00800           0
       321 MEMB     3        SLPC     H8Y      HAL2     0.900000E-01   1.00800           0
       322 MEMB     3        SLPC     C39      CTL2    -0.180000       12.0110           0
       323 MEMB     3        SLPC     H9X      HAL2     0.900000E-01   1.00800           0
       324 MEMB     3        SLPC     H9Y      HAL2     0.900000E-01   1.00800           0
       325 MEMB     3        SLPC     C310     CTL2    -0.180000       12.0110           0
       326 MEMB     3        SLPC     H10X     HAL2     0.900000E-01   1.00800           0
       327 MEMB     3        SLPC     H10Y     HAL2     0.900000E-01   1.00800           0
       328 MEMB     3        SLPC     C311     CTL2    -0.180000       12.0110           0
       329 MEMB     3        SLPC     H11X     HAL2     0.900000E-01   1.00800           0
       330 MEMB     3        SLPC     H11Y     HAL2     0.900000E-01   1.00800           0
       331 MEMB     3        SLPC     C312     CTL2    -0.180000       12.0110           0
       332 MEMB     3        SLPC     H12X     HAL2     0.900000E-01   1.00800           0
       333 MEMB     3        SLPC     H12Y     HAL2     0.900000E-01   1.00800           0
       334 MEMB     3        SLPC     C313     CTL2    -0.180000       12.0110           0
       335 MEMB     3        SLPC     H13X     HAL2     0.900000E-01   1.00800           0
       336 MEMB     3        SLPC     H13Y     HAL2     0.900000E-01   1.00800           0
       337 MEMB     3        SLPC     C314     CTL2    -0.180000       12.0110           0
       338 MEMB     3        SLPC     H14X     HAL2     0.900000E-01   1.00800           0
       339 MEMB     3        SLPC     H14Y     HAL2     0.900000E-01   1.00800           0
       340 MEMB     3        SLPC     C315     CTL2    -0.180000       12.0110           0
       341 MEMB     3        SLPC     H15X     HAL2     0.900000E-01   1.00800           0
       342 MEMB     3        SLPC     H15Y     HAL2     0.900000E-01   1.00800           0
       343 MEMB     3        SLPC     C316     CTL2    -0.180000       12.0110           0
       344 MEMB     3        SLPC     H16X     HAL2     0.900000E-01   1.00800           0
       345 MEMB     3        SLPC     H16Y     HAL2     0.900000E-01   1.00800           0
       346 MEMB     3        SLPC     C317     CTL2    -0.180000       12.0110           0
       347 MEMB     3        SLPC     H17X     HAL2     0.900000E-01   1.00800           0
       348 MEMB     3        SLPC     H17Y     HAL2     0.900000E-01   1.00800           0
       349 MEMB     3        SLPC     C318     CTL3    -0.270000       12.0110           0
       350 MEMB     3        SLPC     H18X     HAL3     0.900000E-01   1.00800           0
       351 MEMB     3        SLPC     H18Y     HAL3     0.900000E-01   1.00800           0
       352 MEMB     3        SLPC     H18Z     HAL3     0.900000E-01   1.00800           0
       353 MEMB     4        SAPS     N        NH3L    -0.300000       14.0070           0
       354 MEMB     4        SAPS     HN1      HCL      0.330000       1.00800           0
       355 MEMB     4        SAPS     HN2      HCL      0.330000       1.00800           0
       356 MEMB     4        SAPS     HN3      HCL      0.330000       1.00800           0
       357 MEMB     4        SAPS     C12      CTL1     0.210000       12.0110           0
       358 MEMB     4        SAPS     H12A     HBL      0.100000       1.00800           0
       359 MEMB     4        SAPS     C13      CCL      0.340000       12.0110           0
       360 MEMB     4        SAPS     O13A     OCL     -0.670000       15.9994           0
       361 MEMB     4        SAPS     O13B     OCL     -0.670000       15.9994           0
       362 MEMB     4        SAPS     C11      CTL2    -0.800000E-01   12.0110           0
       363 MEMB     4        SAPS     H11A     HAL2     0.900000E-01   1.00800           0
       364 MEMB     4        SAPS     H11B     HAL2     0.900000E-01   1.00800           0
       365 MEMB     4        SAPS     P        PL        1.50000       30.9740           0
       366 MEMB     4        SAPS     O13      O2L     -0.780000       15.9994           0
       367 MEMB     4        SAPS     O14      O2L     -0.780000       15.9994           0
       368 MEMB     4        SAPS     O12      OSLP    -0.570000       15.9994           0
       369 MEMB     4        SAPS     O11      OSLP    -0.570000       15.9994           0
       370 MEMB     4        SAPS     C1       CTL2    -0.800000E-01   12.0110           0
       371 MEMB     4        SAPS     HA       HAL2     0.900000E-01   1.00800           0
       372 MEMB     4        SAPS     HB       HAL2     0.900000E-01   1.00800           0
       373 MEMB     4        SAPS     C2       CTL1     0.170000       12.0110           0
       374 MEMB     4        SAPS     HS       HAL1     0.900000E-01   1.00800           0
       375 MEMB     4        SAPS     O21      OSL     -0.490000       15.9994           0
       376 MEMB     4        SAPS     C21      CL       0.900000       12.0110           0
       377 MEMB     4        SAPS     O22      OBL     -0.630000       15.9994           0
       378 MEMB     4        SAPS     C22      CTL2    -0.220000       12.0110           0
       379 MEMB     4        SAPS     H2R      HAL2     0.900000E-01   1.00800           0
       380 MEMB     4        SAPS     H2S      HAL2     0.900000E-01   1.00800           0
       381 MEMB     4        SAPS     C3       CTL2     0.800000E-01   12.0110           0
       382 MEMB     4        SAPS     HX       HAL2     0.900000E-01   1.00800           0
       383 MEMB     4        SAPS     HY       HAL2     0.900000E-01   1.00800           0
       384 MEMB     4        SAPS     O31      OSL     -0.490000       15.9994           0
       385 MEMB     4        SAPS     C31      CL       0.900000       12.0110           0
       386 MEMB     4        SAPS     O32      OBL     -0.630000       15.9994           0
       387 MEMB     4        SAPS     C32      CTL2    -0.220000       12.0110           0
       388 MEMB     4        SAPS     H2X      HAL2     0.900000E-01   1.00800           0
       389 MEMB     4        SAPS     H2Y      HAL2     0.900000E-01   1.00800           0
       390 MEMB     4        SAPS     C23      CTL2    -0.180000       12.0110           0
       391 MEMB     4        SAPS     H3R      HAL2     0.900000E-01   1.00800           0
       392 MEMB     4        SAPS     H3S      HAL2     0.900000E-01   1.00800           0
       393 MEMB     4        SAPS     C24      CTL2    -0.180000       12.0110           0
       394 MEMB     4        SAPS     H4R      HAL2     0.900000E-01   1.00800           0
       395 MEMB     4        SAPS     H4S      HAL2     0.900000E-01   1.00800           0
       396 MEMB     4        SAPS     C25      CEL1    -0.150000       12.0110           0
       397 MEMB     4        SAPS     H5R      HEL1     0.150000       1.00800           0
       398 MEMB     4        SAPS     C26      CEL1    -0.150000       12.0110           0
       399 MEMB     4        SAPS     H6R      HEL1     0.150000       1.00800           0
       400 MEMB     4        SAPS     C27      CTL2    -0.180000       12.0110           0
       401 MEMB     4        SAPS     H7R      HAL2     0.900000E-01   1.00800           0
       402 MEMB     4        SAPS     H7S      HAL2     0.900000E-01   1.00800           0
       403 MEMB     4        SAPS     C28      CEL1    -0.150000       12.0110           0
       404 MEMB     4        SAPS     H8R      HEL1     0.150000       1.00800           0
       405 MEMB     4        SAPS     C29      CEL1    -0.150000       12.0110           0
       406 MEMB     4        SAPS     H9R      HEL1     0.150000       1.00800           0
       407 MEMB     4        SAPS     C210     CTL2    -0.180000       12.0110           0
       408 MEMB     4        SAPS     H10R     HAL2     0.900000E-01   1.00800           0
       409 MEMB     4        SAPS     H10S     HAL2     0.900000E-01   1.00800           0
       410 MEMB     4        SAPS     C211     CEL1    -0.150000       12.0110           0
       411 MEMB     4        SAPS     H11R     HEL1     0.150000       1.00800           0
       412 MEMB     4        SAPS     C212     CEL1    -0.150000       12.0110           0
       413 MEMB     4        SAPS     H12R     HEL1     0.150000       1.00800           0
       414 MEMB     4        SAPS     C213     CTL2    -0.180000       12.0110           0
       415 MEMB     4        SAPS     H13R     HAL2     0.900000E-01   1.00800           0
       416 MEMB     4        SAPS     H13S     HAL2     0.900000E-01   1.00800           0
       417 MEMB     4        SAPS     C214     CEL1    -0.150000       12.0110           0
       418 MEMB     4        SAPS     H14R     HEL1     0.150000       1.00800           0
       419 MEMB     4        SAPS     C215     CEL1    -0.150000       12.0110           0
       420 MEMB     4        SAPS     H15R     HEL1     0.150000       1.00800           0
       421 MEMB     4        SAPS     C216     CTL2    -0.180000       12.0110           0
       422 MEMB     4        SAPS     H16R     HAL2     0.900000E-01   1.00800           0
       423 MEMB     4        SAPS     H16S     HAL2     0.900000E-01   1.00800           0
       424 MEMB     4        SAPS     C217     CTL2    -0.180000       12.0110           0
       425 MEMB     4        SAPS     H17R     HAL2     0.900000E-01   1.00800           0
       426 MEMB     4        SAPS     H17S     HAL2     0.900000E-01   1.00800           0
       427 MEMB     4        SAPS     C218     CTL2    -0.180000       12.0110           0
       428 MEMB     4        SAPS     H18R     HAL2     0.900000E-01   1.00800           0
       429 MEMB     4        SAPS     H18S     HAL2     0.900000E-01   1.00800           0
       430 MEMB     4        SAPS     C219     CTL2    -0.180000       12.0110           0
       431 MEMB     4        SAPS     H19R     HAL2     0.900000E-01   1.00800           0
       432 MEMB     4        SAPS     H19S     HAL2     0.900000E-01   1.00800           0
       433 MEMB     4        SAPS     C220     CTL3    -0.270000       12.0110           0
       434 MEMB     4        SAPS     H20R     HAL3     0.900000E-01   1.00800           0
       435 MEMB     4        SAPS     H20S     HAL3     0.900000E-01   1.00800           0
       436 MEMB     4        SAPS     H20T     HAL3     0.900000E-01   1.00800           0
       437 MEMB     4        SAPS     C33      CTL2    -0.180000       12.0110           0
       438 MEMB     4        SAPS     H3X      HAL2     0.900000E-01   1.00800           0
       439 MEMB     4        SAPS     H3Y      HAL2     0.900000E-01   1.00800           0
       440 MEMB     4        SAPS     C34      CTL2    -0.180000       12.0110           0
       441 MEMB     4        SAPS     H4X      HAL2     0.900000E-01   1.00800           0
       442 MEMB     4        SAPS     H4Y      HAL2     0.900000E-01   1.00800           0
       443 MEMB     4        SAPS     C35      CTL2    -0.180000       12.0110           0
       444 MEMB     4        SAPS     H5X      HAL2     0.900000E-01   1.00800           0
       445 MEMB     4        SAPS     H5Y      HAL2     0.900000E-01   1.00800           0
       446 MEMB     4        SAPS     C36      CTL2    -0.180000       12.0110           0
       447 MEMB     4        SAPS     H6X      HAL2     0.900000E-01   1.00800           0
       448 MEMB     4        SAPS     H6Y      HAL2     0.900000E-01   1.00800           0
       449 MEMB     4        SAPS     C37      CTL2    -0.180000       12.0110           0
       450 MEMB     4        SAPS     H7X      HAL2     0.900000E-01   1.00800           0
       451 MEMB     4        SAPS     H7Y      HAL2     0.900000E-01   1.00800           0
       452 MEMB     4        SAPS     C38      CTL2    -0.180000       12.0110           0
       453 MEMB     4        SAPS     H8X      HAL2     0.900000E-01   1.00800           0
       454 MEMB     4        SAPS     H8Y      HAL2     0.900000E-01   1.00800           0
       455 MEMB     4        SAPS     C39      CTL2    -0.180000       12.0110           0
       456 MEMB     4        SAPS     H9X      HAL2     0.900000E-01   1.00800           0
       457 MEMB     4        SAPS     H9Y      HAL2     0.900000E-01   1.00800           0
       458 MEMB     4        SAPS     C310     CTL2    -0.180000       12.0110           0
       459 MEMB     4        SAPS     H10X     HAL2     0.900000E-01   1.00800           0
       460 MEMB     4        SAPS     H10Y     HAL2     0.900000E-01   1.00800           0
       461 MEMB     4        SAPS     C311     CTL2    -0.180000       12.0110           0
       462 MEMB     4        SAPS     H11X     HAL2     0.900000E-01   1.00800           0
       463 MEMB     4        SAPS     H11Y     HAL2     0.900000E-01   1.00800           0
       464 MEMB     4        SAPS     C312     CTL2    -0.180000       12.0110           0
       465 MEMB     4        SAPS     H12X     HAL2     0.900000E-01   1.00800           0
       466 MEMB     4        SAPS     H12Y     HAL2     0.900000E-01   1.00800           0
       467 MEMB     4        SAPS     C313     CTL2    -0.180000       12.0110           0
       468 MEMB     4        SAPS     H13X     HAL2     0.900000E-01   1.00800           0
       469 MEMB     4        SAPS     H13Y     HAL2     0.900000E-01   1.00800           0
       470 MEMB     4        SAPS     C314     CTL2    -0.180000       12.0110           0
       471 MEMB     4        SAPS     H14X     HAL2     0.900000E-01   1.00800           0
       472 MEMB     4        SAPS     H14Y     HAL2     0.900000E-01   1.00800           0
       473 MEMB     4        SAPS     C315     CTL2    -0.180000       12.0110           0
       474 MEMB     4        SAPS     H15X     HAL2     0.900000E-01   1.00800           0
       475 MEMB     4        SAPS     H15Y     HAL2     0.900000E-01   1.00800           0
       476 MEMB     4        SAPS     C316     CTL2    -0.180000       12.0110           0
       477 MEMB     4        SAPS     H16X     HAL2     0.900000E-01   1.00800           0
       478 MEMB     4        SAPS     H16Y     HAL2     0.900000E-01   1.00800           0
       479 MEMB     4        SAPS     C317     CTL2    -0.180000       12.0110           0
       480 MEMB     4        SAPS     H17X     HAL2     0.900000E-01   1.00800           0
       481 MEMB     4        SAPS     H17Y     HAL2     0.900000E-01   1.00800           0
       482 MEMB     4        SAPS     C318     CTL3    -0.270000       12.0110           0
       483 MEMB     4        SAPS     H18X     HAL3     0.900000E-01   1.00800           0
       484 MEMB     4        SAPS     H18Y     HAL3     0.900000E-01   1.00800           0
       485 MEMB     4        SAPS     H18Z     HAL3     0.900000E-01   1.00800           0
       486 MEMB     5        SAPS     N        NH3L    -0.300000       14.0070           0
       487 MEMB     5        SAPS     HN1      HCL      0.330000       1.00800           0
       488 MEMB     5        SAPS     HN2      HCL      0.330000       1.00800           0
       489 MEMB     5        SAPS     HN3      HCL      0.330000       1.00800           0
       490 MEMB     5        SAPS     C12      CTL1     0.210000       12.0110           0
       491 MEMB     5        SAPS     H12A     HBL      0.100000       1.00800           0
       492 MEMB     5        SAPS     C13      CCL      0.340000       12.0110           0
       493 MEMB     5        SAPS     O13A     OCL     -0.670000       15.9994           0
       494 MEMB     5        SAPS     O13B     OCL     -0.670000       15.9994           0
       495 MEMB     5        SAPS     C11      CTL2    -0.800000E-01   12.0110           0
       496 MEMB     5        SAPS     H11A     HAL2     0.900000E-01   1.00800           0
       497 MEMB     5        SAPS     H11B     HAL2     0.900000E-01   1.00800           0
       498 MEMB     5        SAPS     P        PL        1.50000       30.9740           0
       499 MEMB     5        SAPS     O13      O2L     -0.780000       15.9994           0
       500 MEMB     5        SAPS     O14      O2L     -0.780000       15.9994           0
       501 MEMB     5        SAPS     O12      OSLP    -0.570000       15.9994           0
       502 MEMB     5        SAPS     O11      OSLP    -0.570000       15.9994           0
       503 MEMB     5        SAPS     C1       CTL2    -0.800000E-01   12.0110           0
       504 MEMB     5        SAPS     HA       HAL2     0.900000E-01   1.00800           0
       505 MEMB     5        SAPS     HB       HAL2     0.900000E-01   1.00800           0
       506 MEMB     5        SAPS     C2       CTL1     0.170000       12.0110           0
       507 MEMB     5        SAPS     HS       HAL1     0.900000E-01   1.00800           0
       508 MEMB     5        SAPS     O21      OSL     -0.490000       15.9994           0
       509 MEMB     5        SAPS     C21      CL       0.900000       12.0110           0
       510 MEMB     5        SAPS     O22      OBL     -0.630000       15.9994           0
       511 MEMB     5        SAPS     C22      CTL2    -0.220000       12.0110           0
       512 MEMB     5        SAPS     H2R      HAL2     0.900000E-01   1.00800           0
       513 MEMB     5        SAPS     H2S      HAL2     0.900000E-01   1.00800           0
       514 MEMB     5        SAPS     C3       CTL2     0.800000E-01   12.0110           0
       515 MEMB     5        SAPS     HX       HAL2     0.900000E-01   1.00800           0
       516 MEMB     5        SAPS     HY       HAL2     0.900000E-01   1.00800           0
       517 MEMB     5        SAPS     O31      OSL     -0.490000       15.9994           0
       518 MEMB     5        SAPS     C31      CL       0.900000       12.0110           0
       519 MEMB     5        SAPS     O32      OBL     -0.630000       15.9994           0
       520 MEMB     5        SAPS     C32      CTL2    -0.220000       12.0110           0
       521 MEMB     5        SAPS     H2X      HAL2     0.900000E-01   1.00800           0
       522 MEMB     5        SAPS     H2Y      HAL2     0.900000E-01   1.00800           0
       523 MEMB     5        SAPS     C23      CTL2    -0.180000       12.0110           0
       524 MEMB     5        SAPS     H3R      HAL2     0.900000E-01   1.00800           0
       525 MEMB     5        SAPS     H3S      HAL2     0.900000E-01   1.00800           0
       526 MEMB     5        SAPS     C24      CTL2    -0.180000       12.0110           0
       527 MEMB     5        SAPS     H4R      HAL2     0.900000E-01   1.00800           0
       528 MEMB     5        SAPS     H4S      HAL2     0.900000E-01   1.00800           0
       529 MEMB     5        SAPS     C25      CEL1    -0.150000       12.0110           0
       530 MEMB     5        SAPS     H5R      HEL1     0.150000       1.00800           0
       531 MEMB     5        SAPS     C26      CEL1    -0.150000       12.0110           0
       532 MEMB     5        SAPS     H6R      HEL1     0.150000       1.00800           0
       533 MEMB     5        SAPS     C27      CTL2    -0.180000       12.0110           0
       534 MEMB     5        SAPS     H7R      HAL2     0.900000E-01   1.00800           0
       535 MEMB     5        SAPS     H7S      HAL2     0.900000E-01   1.00800           0
       536 MEMB     5        SAPS     C28      CEL1    -0.150000       12.0110           0
       537 MEMB     5        SAPS     H8R      HEL1     0.150000       1.00800           0
       538 MEMB     5        SAPS     C29      CEL1    -0.150000       12.0110           0
       539 MEMB     5        SAPS     H9R      HEL1     0.150000       1.00800           0
       540 MEMB     5        SAPS     C210     CTL2    -0.180000       12.0110           0
       541 MEMB     5        SAPS     H10R     HAL2     0.900000E-01   1.00800           0
       542 MEMB     5        SAPS     H10S     HAL2     0.900000E-01   1.00800           0
       543 MEMB     5        SAPS     C211     CEL1    -0.150000       12.0110           0
       544 MEMB     5        SAPS     H11R     HEL1     0.150000       1.00800           0
       545 MEMB     5        SAPS     C212     CEL1    -0.150000       12.0110           0
       546 MEMB     5        SAPS     H12R     HEL1     0.150000       1.00800           0
       547 MEMB     5        SAPS     C213     CTL2    -0.180000       12.0110           0
       548 MEMB     5        SAPS     H13R     HAL2     0.900000E-01   1.00800           0
       549 MEMB     5        SAPS     H13S     HAL2     0.900000E-01   1.00800           0
       550 MEMB     5        SAPS     C214     CEL1    -0.150000       12.0110           0
       551 MEMB     5        SAPS     H14R     HEL1     0.150000       1.00800           0
       552 MEMB     5        SAPS     C215     CEL1    -0.150000       12.0110           0
       553 MEMB     5        SAPS     H15R     HEL1     0.150000       1.00800           0
       554 MEMB     5        SAPS     C216     CTL2    -0.180000       12.0110           0
       555 MEMB     5        SAPS     H16R     HAL2     0.900000E-01   1.00800           0
       556 MEMB     5        SAPS     H16S     HAL2     0.900000E-01   1.00800           0
       557 MEMB     5        SAPS     C217     CTL2    -0.180000       12.0110           0
       558 MEMB     5        SAPS     H17R     HAL2     0.900000E-01   1.00800           0
       559 MEMB     5        SAPS     H17S     HAL2     0.900000E-01   1.00800           0
       560 MEMB     5        SAPS     C218     CTL2    -0.180000       12.0110           0
       561 MEMB     5        SAPS     H18R     HAL2     0.900000E-01   1.00800           0
       562 MEMB     5        SAPS     H18S     HAL2     0.900000E-01   1.00800           0
       563 MEMB     5        SAPS     C219     CTL2    -0.180000       12.0110           0
       564 MEMB     5        SAPS     H19R     HAL2     0.900000E-01   1.00800           0
       565 MEMB     5        SAPS     H19S     HAL2     0.900000E-01   1.00800           0
       566 MEMB     5        SAPS     C220     CTL3    -0.270000       12.0110           0
       567 MEMB     5        SAPS     H20R     HAL3     0.900000E-01   1.00800           0
       568 MEMB     5        SAPS     H20S     HAL3     0.900000E-01   1.00800           0
       569 MEMB     5        SAPS     H20T     HAL3     0.900000E-01   1.00800           0
       570 MEMB     5        SAPS     C33      CTL2    -0.180000       12.0110           0
       571 MEMB     5        SAPS     H3X      HAL2     0.900000E-01   1.00800           0
       572 MEMB     5        SAPS     H3Y      HAL2     0.900000E-01   1.00800           0
       573 MEMB     5        SAPS     C34      CTL2    -0.180000       12.0110           0
       574 MEMB     5        SAPS     H4X      HAL2     0.900000E-01   1.00800           0
       575 MEMB     5        SAPS     H4Y      HAL2     0.900000E-01   1.00800           0
       576 MEMB     5        SAPS     C35      CTL2    -0.180000       12.0110           0
       577 MEMB     5        SAPS     H5X      HAL2     0.900000E-01   1.00800           0
       578 MEMB     5        SAPS     H5Y      HAL2     0.900000E-01   1.00800           0
       579 MEMB     5        SAPS     C36      CTL2    -0.180000       12.0110           0
       580 MEMB     5        SAPS     H6X      HAL2     0.900000E-01   1.00800           0
       581 MEMB     5        SAPS     H6Y      HAL2     0.900000E-01   1.00800           0
       582 MEMB     5        SAPS     C37      CTL2    -0.180000       12.0110           0
       583 MEMB     5        SAPS     H7X      HAL2     0.900000E-01   1.00800           0
       584 MEMB     5        SAPS     H7Y      HAL2     0.900000E-01   1.00800           0
       585 MEMB     5        SAPS     C38      CTL2    -0.180000       12.0110           0
       586 MEMB     5        SAPS     H8X      HAL2     0.900000E-01   1.00800           0
       587 MEMB     5        SAPS     H8Y      HAL2     0.900000E-01   1.00800           0
       588 MEMB     5        SAPS     C39      CTL2    -0.180000       12.0110           0
       589 MEMB     5        SAPS     H9X      HAL2     0.900000E-01   1.00800           0
       590 MEMB     5        SAPS     H9Y      HAL2     0.900000E-01   1.00800           0
       591 MEMB     5        SAPS     C310     CTL2    -0.180000       12.0110           0
       592 MEMB     5        SAPS     H10X     HAL2     0.900000E-01   1.00800           0
       593 MEMB     5        SAPS     H10Y     HAL2     0.900000E-01   1.00800           0
       594 MEMB     5        SAPS     C311     CTL2    -0.180000       12.0110           0
       595 MEMB     5        SAPS     H11X     HAL2     0.900000E-01   1.00800           0
       596 MEMB     5        SAPS     H11Y     HAL2     0.900000E-01   1.00800           0
       597 MEMB     5        SAPS     C312     CTL2    -0.180000       12.0110           0
       598 MEMB     5        SAPS     H12X     HAL2     0.900000E-01   1.00800           0
       599 MEMB     5        SAPS     H12Y     HAL2     0.900000E-01   1.00800           0
       600 MEMB     5        SAPS     C313     CTL2    -0.180000       12.0110           0
       601 MEMB     5        SAPS     H13X     HAL2     0.900000E-01   1.00800           0
       602 MEMB     5        SAPS     H13Y     HAL2     0.900000E-01   1.00800           0
       603 MEMB     5        SAPS     C314     CTL2    -0.180000       12.0110           0
       604 MEMB     5        SAPS     H14X     HAL2     0.900000E-01   1.00800           0
       605 MEMB     5        SAPS     H14Y     HAL2     0.900000E-01   1.00800           0
       606 MEMB     5        SAPS     C315     CTL2    -0.180000       12.0110           0
       607 MEMB     5        SAPS     H15X     HAL2     0.900000E-01   1.00800           0
       608 MEMB     5        SAPS     H15Y     HAL2     0.900000E-01   1.00800           0
       609 MEMB     5        SAPS     C316     CTL2    -0.180000       12.0110           0
       610 MEMB     5        SAPS     H16X     HAL2     0.900000E-01   1.00800           0
       611 MEMB     5        SAPS     H16Y     HAL2     0.900000E-01   1.00800           0
       612 MEMB     5        SAPS     C317     CTL2    -0.180000       12.0110           0
       613 MEMB     5        SAPS     H17X     HAL2     0.900000E-01   1.00800           0
       614 MEMB     5        SAPS     H17Y     HAL2     0.900000E-01   1.00800           0
       615 MEMB     5        SAPS     C318     CTL3    -0.270000       12.0110           0
       616 MEMB     5        SAPS     H18X     HAL3     0.900000E-01   1.00800           0
       617 MEMB     5        SAPS     H18Y     HAL3     0.900000E-01   1.00800           0
       618 MEMB     5        SAPS     H18Z     HAL3     0.900000E-01   1.00800           0
       619 MEMB     6        CHL1     C3       CRL1     0.140000       12.0110           0
       620 MEMB     6        CHL1     H3       HGA1     0.900000E-01   1.00800           0
       621 MEMB     6        CHL1     O3       OHL     -0.660000       15.9994           0
       622 MEMB     6        CHL1     H3'      HOL      0.430000       1.00800           0
       623 MEMB     6        CHL1     C4       CRL2    -0.180000       12.0110           0
       624 MEMB     6        CHL1     H4A      HGA2     0.900000E-01   1.00800           0
       625 MEMB     6        CHL1     H4B      HGA2     0.900000E-01   1.00800           0
       626 MEMB     6        CHL1     C5       CEL1      0.00000       12.0110           0
       627 MEMB     6        CHL1     C6       CEL1    -0.150000       12.0110           0
       628 MEMB     6        CHL1     H6       HEL1     0.150000       1.00800           0
       629 MEMB     6        CHL1     C7       CRL2    -0.180000       12.0110           0
       630 MEMB     6        CHL1     H7A      HGA2     0.900000E-01   1.00800           0
       631 MEMB     6        CHL1     H7B      HGA2     0.900000E-01   1.00800           0
       632 MEMB     6        CHL1     C8       CRL1    -0.900000E-01   12.0110           0
       633 MEMB     6        CHL1     H8       HGA1     0.900000E-01   1.00800           0
       634 MEMB     6        CHL1     C14      CRL1    -0.900000E-01   12.0110           0
       635 MEMB     6        CHL1     H14      HGA1     0.900000E-01   1.00800           0
       636 MEMB     6        CHL1     C15      CRL2    -0.180000       12.0110           0
       637 MEMB     6        CHL1     H15A     HGA2     0.900000E-01   1.00800           0
       638 MEMB     6        CHL1     H15B     HGA2     0.900000E-01   1.00800           0
       639 MEMB     6        CHL1     C16      CRL2    -0.180000       12.0110           0
       640 MEMB     6        CHL1     H16A     HGA2     0.900000E-01   1.00800           0
       641 MEMB     6        CHL1     H16B     HGA2     0.900000E-01   1.00800           0
       642 MEMB     6        CHL1     C17      CRL1    -0.900000E-01   12.0110           0
       643 MEMB     6        CHL1     H17      HGA1     0.900000E-01   1.00800           0
       644 MEMB     6        CHL1     C13      CRL1      0.00000       12.0110           0
       645 MEMB     6        CHL1     C18      CTL3    -0.270000       12.0110           0
       646 MEMB     6        CHL1     H18A     HAL3     0.900000E-01   1.00800           0
       647 MEMB     6        CHL1     H18B     HAL3     0.900000E-01   1.00800           0
       648 MEMB     6        CHL1     H18C     HAL3     0.900000E-01   1.00800           0
       649 MEMB     6        CHL1     C12      CRL2    -0.180000       12.0110           0
       650 MEMB     6        CHL1     H12A     HGA2     0.900000E-01   1.00800           0
       651 MEMB     6        CHL1     H12B     HGA2     0.900000E-01   1.00800           0
       652 MEMB     6        CHL1     C11      CRL2    -0.180000       12.0110           0
       653 MEMB     6        CHL1     H11A     HGA2     0.900000E-01   1.00800           0
       654 MEMB     6        CHL1     H11B     HGA2     0.900000E-01   1.00800           0
       655 MEMB     6        CHL1     C9       CRL1    -0.900000E-01   12.0110           0
       656 MEMB     6        CHL1     H9       HGA1     0.900000E-01   1.00800           0
       657 MEMB     6        CHL1     C10      CRL1      0.00000       12.0110           0
       658 MEMB     6        CHL1     C19      CTL3    -0.270000       12.0110           0
       659 MEMB     6        CHL1     H19A     HAL3     0.900000E-01   1.00800           0
       660 MEMB     6        CHL1     H19B     HAL3     0.900000E-01   1.00800           0
       661 MEMB     6        CHL1     H19C     HAL3     0.900000E-01   1.00800           0
       662 MEMB     6        CHL1     C1       CRL2    -0.180000       12.0110           0
       663 MEMB     6        CHL1     H1A      HGA2     0.900000E-01   1.00800           0
       664 MEMB     6        CHL1     H1B      HGA2     0.900000E-01   1.00800           0
       665 MEMB     6        CHL1     C2       CRL2    -0.180000       12.0110           0
       666 MEMB     6        CHL1     H2A      HGA2     0.900000E-01   1.00800           0
       667 MEMB     6        CHL1     H2B      HGA2     0.900000E-01   1.00800           0
       668 MEMB     6        CHL1     C20      CTL1    -0.900000E-01   12.0110           0
       669 MEMB     6        CHL1     H20      HAL1     0.900000E-01   1.00800           0
       670 MEMB     6        CHL1     C21      CTL3    -0.270000       12.0110           0
       671 MEMB     6        CHL1     H21A     HAL3     0.900000E-01   1.00800           0
       672 MEMB     6        CHL1     H21B     HAL3     0.900000E-01   1.00800           0
       673 MEMB     6        CHL1     H21C     HAL3     0.900000E-01   1.00800           0
       674 MEMB     6        CHL1     C22      CTL2    -0.180000       12.0110           0
       675 MEMB     6        CHL1     H22A     HAL2     0.900000E-01   1.00800           0
       676 MEMB     6        CHL1     H22B     HAL2     0.900000E-01   1.00800           0
       677 MEMB     6        CHL1     C23      CTL2    -0.180000       12.0110           0
       678 MEMB     6        CHL1     H23A     HAL2     0.900000E-01   1.00800           0
       679 MEMB     6        CHL1     H23B     HAL2     0.900000E-01   1.00800           0
       680 MEMB     6        CHL1     C24      CTL2    -0.180000       12.0110           0
       681 MEMB     6        CHL1     H24A     HAL2     0.900000E-01   1.00800           0
       682 MEMB     6        CHL1     H24B     HAL2     0.900000E-01   1.00800           0
       683 MEMB     6        CHL1     C25      CTL1    -0.900000E-01   12.0110           0
       684 MEMB     6        CHL1     H25      HAL1     0.900000E-01   1.00800           0
       685 MEMB     6        CHL1     C26      CTL3    -0.270000       12.0110           0
       686 MEMB     6        CHL1     H26A     HAL3     0.900000E-01   1.00800           0
       687 MEMB     6        CHL1     H26B     HAL3     0.900000E-01   1.00800           0
       688 MEMB     6        CHL1     H26C     HAL3     0.900000E-01   1.00800           0
       689 MEMB     6        CHL1     C27      CTL3    -0.270000       12.0110           0
       690 MEMB     6        CHL1     H27A     HAL3     0.900000E-01   1.00800           0
       691 MEMB     6        CHL1     H27B     HAL3     0.900000E-01   1.00800           0
       692 MEMB     6        CHL1     H27C     HAL3     0.900000E-01   1.00800           0
       693 MEMB     7        SLPC     N        NTL     -0.600000       14.0070           0
       694 MEMB     7        SLPC     C13      CTL5    -0.350000       12.0110           0
       695 MEMB     7        SLPC     H13A     HL       0.250000       1.00800           0
       696 MEMB     7        SLPC     H13B     HL       0.250000       1.00800           0
       697 MEMB     7        SLPC     H13C     HL       0.250000       1.00800           0
       698 MEMB     7        SLPC     C14      CTL5    -0.350000       12.0110           0
       699 MEMB     7        SLPC     H14A     HL       0.250000       1.00800           0
       700 MEMB     7        SLPC     H14B     HL       0.250000       1.00800           0
       701 MEMB     7        SLPC     H14C     HL       0.250000       1.00800           0
       702 MEMB     7        SLPC     C15      CTL5    -0.350000       12.0110           0
       703 MEMB     7        SLPC     H15A     HL       0.250000       1.00800           0
       704 MEMB     7        SLPC     H15B     HL       0.250000       1.00800           0
       705 MEMB     7        SLPC     H15C     HL       0.250000       1.00800           0
       706 MEMB     7        SLPC     C12      CTL2    -0.100000       12.0110           0
       707 MEMB     7        SLPC     H12A     HL       0.250000       1.00800           0
       708 MEMB     7        SLPC     H12B     HL       0.250000       1.00800           0
       709 MEMB     7        SLPC     C11      CTL2    -0.800000E-01   12.0110           0
       710 MEMB     7        SLPC     H11A     HAL2     0.900000E-01   1.00800           0
       711 MEMB     7        SLPC     H11B     HAL2     0.900000E-01   1.00800           0
       712 MEMB     7        SLPC     P        PL        1.50000       30.9740           0
       713 MEMB     7        SLPC     O13      O2L     -0.780000       15.9994           0
       714 MEMB     7        SLPC     O14      O2L     -0.780000       15.9994           0
       715 MEMB     7        SLPC     O12      OSLP    -0.570000       15.9994           0
       716 MEMB     7        SLPC     O11      OSLP    -0.570000       15.9994           0
       717 MEMB     7        SLPC     C1       CTL2    -0.800000E-01   12.0110           0
       718 MEMB     7        SLPC     HA       HAL2     0.900000E-01   1.00800           0
       719 MEMB     7        SLPC     HB       HAL2     0.900000E-01   1.00800           0
       720 MEMB     7        SLPC     C2       CTL1     0.170000       12.0110           0
       721 MEMB     7        SLPC     HS       HAL1     0.900000E-01   1.00800           0
       722 MEMB     7        SLPC     O21      OSL     -0.490000       15.9994           0
       723 MEMB     7        SLPC     C21      CL       0.900000       12.0110           0
       724 MEMB     7        SLPC     O22      OBL     -0.630000       15.9994           0
       725 MEMB     7        SLPC     C22      CTL2    -0.220000       12.0110           0
       726 MEMB     7        SLPC     H2R      HAL2     0.900000E-01   1.00800           0
       727 MEMB     7        SLPC     H2S      HAL2     0.900000E-01   1.00800           0
       728 MEMB     7        SLPC     C3       CTL2     0.800000E-01   12.0110           0
       729 MEMB     7        SLPC     HX       HAL2     0.900000E-01   1.00800           0
       730 MEMB     7        SLPC     HY       HAL2     0.900000E-01   1.00800           0
       731 MEMB     7        SLPC     O31      OSL     -0.490000       15.9994           0
       732 MEMB     7        SLPC     C31      CL       0.900000       12.0110           0
       733 MEMB     7        SLPC     O32      OBL     -0.630000       15.9994           0
       734 MEMB     7        SLPC     C32      CTL2    -0.220000       12.0110           0
       735 MEMB     7        SLPC     H2X      HAL2     0.900000E-01   1.00800           0
       736 MEMB     7        SLPC     H2Y      HAL2     0.900000E-01   1.00800           0
       737 MEMB     7        SLPC     C23      CTL2    -0.180000       12.0110           0
       738 MEMB     7        SLPC     H3R      HAL2     0.900000E-01   1.00800           0
       739 MEMB     7        SLPC     H3S      HAL2     0.900000E-01   1.00800           0
       740 MEMB     7        SLPC     C24      CTL2    -0.180000       12.0110           0
       741 MEMB     7        SLPC     H4R      HAL2     0.900000E-01   1.00800           0
       742 MEMB     7        SLPC     H4S      HAL2     0.900000E-01   1.00800           0
       743 MEMB     7        SLPC     C25      CTL2    -0.180000       12.0110           0
       744 MEMB     7        SLPC     H5R      HAL2     0.900000E-01   1.00800           0
       745 MEMB     7        SLPC     H5S      HAL2     0.900000E-01   1.00800           0
       746 MEMB     7        SLPC     C26      CTL2    -0.180000       12.0110           0
       747 MEMB     7        SLPC     H6R      HAL2     0.900000E-01   1.00800           0
       748 MEMB     7        SLPC     H6S      HAL2     0.900000E-01   1.00800           0
       749 MEMB     7        SLPC     C27      CTL2    -0.180000       12.0110           0
       750 MEMB     7        SLPC     H7R      HAL2     0.900000E-01   1.00800           0
       751 MEMB     7        SLPC     H7S      HAL2     0.900000E-01   1.00800           0
       752 MEMB     7        SLPC     C28      CTL2    -0.180000       12.0110           0
       753 MEMB     7        SLPC     H8R      HAL2     0.900000E-01   1.00800           0
       754 MEMB     7        SLPC     H8S      HAL2     0.900000E-01   1.00800           0
       755 MEMB     7        SLPC     C29      CEL1    -0.150000       12.0110           0
       756 MEMB     7        SLPC     H9R      HEL1     0.150000       1.00800           0
       757 MEMB     7        SLPC     C210     CEL1    -0.150000       12.0110           0
       758 MEMB     7        SLPC     H10R     HEL1     0.150000       1.00800           0
       759 MEMB     7        SLPC     C211     CTL2    -0.180000       12.0110           0
       760 MEMB     7        SLPC     H11R     HAL2     0.900000E-01   1.00800           0
       761 MEMB     7        SLPC     H11S     HAL2     0.900000E-01   1.00800           0
       762 MEMB     7        SLPC     C212     CEL1    -0.150000       12.0110           0
       763 MEMB     7        SLPC     H12R     HEL1     0.150000       1.00800           0
       764 MEMB     7        SLPC     C213     CEL1    -0.150000       12.0110           0
       765 MEMB     7        SLPC     H13R     HEL1     0.150000       1.00800           0
       766 MEMB     7        SLPC     C214     CTL2    -0.180000       12.0110           0
       767 MEMB     7        SLPC     H14R     HAL2     0.900000E-01   1.00800           0
       768 MEMB     7        SLPC     H14S     HAL2     0.900000E-01   1.00800           0
       769 MEMB     7        SLPC     C215     CTL2    -0.180000       12.0110           0
       770 MEMB     7        SLPC     H15R     HAL2     0.900000E-01   1.00800           0
       771 MEMB     7        SLPC     H15S     HAL2     0.900000E-01   1.00800           0
       772 MEMB     7        SLPC     C216     CTL2    -0.180000       12.0110           0
       773 MEMB     7        SLPC     H16R     HAL2     0.900000E-01   1.00800           0
       774 MEMB     7        SLPC     H16S     HAL2     0.900000E-01   1.00800           0
       775 MEMB     7        SLPC     C217     CTL2    -0.180000       12.0110           0
       776 MEMB     7        SLPC     H17R     HAL2     0.900000E-01   1.00800           0
       777 MEMB     7        SLPC     H17S     HAL2     0.900000E-01   1.00800           0
       778 MEMB     7        SLPC     C218     CTL3    -0.270000       12.0110           0
       779 MEMB     7        SLPC     H18R     HAL3     0.900000E-01   1.00800           0
       780 MEMB     7        SLPC     H18S     HAL3     0.900000E-01   1.00800           0
       781 MEMB     7        SLPC     H18T     HAL3     0.900000E-01   1.00800           0
       782 MEMB     7        SLPC     C33      CTL2    -0.180000       12.0110           0
       783 MEMB     7        SLPC     H3X      HAL2     0.900000E-01   1.00800           0
       784 MEMB     7        SLPC     H3Y      HAL2     0.900000E-01   1.00800           0
       785 MEMB     7        SLPC     C34      CTL2    -0.180000       12.0110           0
       786 MEMB     7        SLPC     H4X      HAL2     0.900000E-01   1.00800           0
       787 MEMB     7        SLPC     H4Y      HAL2     0.900000E-01   1.00800           0
       788 MEMB     7        SLPC     C35      CTL2    -0.180000       12.0110           0
       789 MEMB     7        SLPC     H5X      HAL2     0.900000E-01   1.00800           0
       790 MEMB     7        SLPC     H5Y      HAL2     0.900000E-01   1.00800           0
       791 MEMB     7        SLPC     C36      CTL2    -0.180000       12.0110           0
       792 MEMB     7        SLPC     H6X      HAL2     0.900000E-01   1.00800           0
       793 MEMB     7        SLPC     H6Y      HAL2     0.900000E-01   1.00800           0
       794 MEMB     7        SLPC     C37      CTL2    -0.180000       12.0110           0
       795 MEMB     7        SLPC     H7X      HAL2     0.900000E-01   1.00800           0
       796 MEMB     7        SLPC     H7Y      HAL2     0.900000E-01   1.00800           0
       797 MEMB     7        SLPC     C38      CTL2    -0.180000       12.0110           0
       798 MEMB     7        SLPC     H8X      HAL2     0.900000E-01   1.00800           0
       799 MEMB     7        SLPC     H8Y      HAL2     0.900000E-01   1.00800           0
       800 MEMB     7        SLPC     C39      CTL2    -0.180000       12.0110           0
       801 MEMB     7        SLPC     H9X      HAL2     0.900000E-01   1.00800           0
       802 MEMB     7        SLPC     H9Y      HAL2     0.900000E-01   1.00800           0
       803 MEMB     7        SLPC     C310     CTL2    -0.180000       12.0110           0
       804 MEMB     7        SLPC     H10X     HAL2     0.900000E-01   1.00800           0
       805 MEMB     7        SLPC     H10Y     HAL2     0.900000E-01   1.00800           0
       806 MEMB     7        SLPC     C311     CTL2    -0.180000       12.0110           0
       807 MEMB     7        SLPC     H11X     HAL2     0.900000E-01   1.00800           0
       808 MEMB     7        SLPC     H11Y     HAL2     0.900000E-01   1.00800           0
       809 MEMB     7        SLPC     C312     CTL2    -0.180000       12.0110           0
       810 MEMB     7        SLPC     H12X     HAL2     0.900000E-01   1.00800           0
       811 MEMB     7        SLPC     H12Y     HAL2     0.900000E-01   1.00800           0
       812 MEMB     7        SLPC     C313     CTL2    -0.180000       12.0110           0
       813 MEMB     7        SLPC     H13X     HAL2     0.900000E-01   1.00800           0
       814 MEMB     7        SLPC     H13Y     HAL2     0.900000E-01   1.00800           0
       815 MEMB     7        SLPC     C314     CTL2    -0.180000       12.0110           0
       816 MEMB     7        SLPC     H14X     HAL2     0.900000E-01   1.00800           0
       817 MEMB     7        SLPC     H14Y     HAL2     0.900000E-01   1.00800           0
       818 MEMB     7        SLPC     C315     CTL2    -0.180000       12.0110           0
       819 MEMB     7        SLPC     H15X     HAL2     0.900000E-01   1.00800           0
       820 MEMB     7        SLPC     H15Y     HAL2     0.900000E-01   1.00800           0
       821 MEMB     7        SLPC     C316     CTL2    -0.180000       12.0110           0
       822 MEMB     7        SLPC     H16X     HAL2     0.900000E-01   1.00800           0
       823 MEMB     7        SLPC     H16Y     HAL2     0.900000E-01   1.00800           0
       824 MEMB     7        SLPC     C317     CTL2    -0.180000       12.0110           0
       825 MEMB     7        SLPC     H17X     HAL2     0.900000E-01   1.00800           0
       826 MEMB     7        SLPC     H17Y     HAL2     0.900000E-01   1.00800           0
       827 MEMB     7        SLPC     C318     CTL3    -0.270000       12.0110           0
       828 MEMB     7        SLPC     H18X     HAL3     0.900000E-01   1.00800           0
       829 MEMB     7        SLPC     H18Y     HAL3     0.900000E-01   1.00800           0
       830 MEMB     7        SLPC     H18Z     HAL3     0.900000E-01   1.00800           0
       831 MEMB     8        OSM      N        NTL     -0.600000       14.0070           0
       832 MEMB     8        OSM      C15      CTL5    -0.350000       12.0110           0
       833 MEMB     8        OSM      H15A     HL       0.250000       1.00800           0
       834 MEMB     8        OSM      H15B     HL       0.250000       1.00800           0
       835 MEMB     8        OSM      H15C     HL       0.250000       1.00800           0
       836 MEMB     8        OSM      C14      CTL5    -0.350000       12.0110           0
       837 MEMB     8        OSM      H14A     HL       0.250000       1.00800           0
       838 MEMB     8        OSM      H14B     HL       0.250000       1.00800           0
       839 MEMB     8        OSM      H14C     HL       0.250000       1.00800           0
       840 MEMB     8        OSM      C13      CTL5    -0.350000       12.0110           0
       841 MEMB     8        OSM      H13A     HL       0.250000       1.00800           0
       842 MEMB     8        OSM      H13B     HL       0.250000       1.00800           0
       843 MEMB     8        OSM      H13C     HL       0.250000       1.00800           0
       844 MEMB     8        OSM      C12      CTL2    -0.100000       12.0110           0
       845 MEMB     8        OSM      H12A     HL       0.250000       1.00800           0
       846 MEMB     8        OSM      H12B     HL       0.250000       1.00800           0
       847 MEMB     8        OSM      C11      CTL2    -0.800000E-01   12.0110           0
       848 MEMB     8        OSM      H11A     HAL2     0.900000E-01   1.00800           0
       849 MEMB     8        OSM      H11B     HAL2     0.900000E-01   1.00800           0
       850 MEMB     8        OSM      P        PL        1.50000       30.9740           0
       851 MEMB     8        OSM      O13      O2L     -0.780000       15.9994           0
       852 MEMB     8        OSM      O14      O2L     -0.780000       15.9994           0
       853 MEMB     8        OSM      O11      OSLP    -0.570000       15.9994           0
       854 MEMB     8        OSM      O12      OSLP    -0.570000       15.9994           0
       855 MEMB     8        OSM      C1S      CTL2    -0.800000E-01   12.0110           0
       856 MEMB     8        OSM      H1S      HAL2     0.900000E-01   1.00800           0
       857 MEMB     8        OSM      H1T      HAL2     0.900000E-01   1.00800           0
       858 MEMB     8        OSM      NF       NHL     -0.700000       14.0070           0
       859 MEMB     8        OSM      HNF      H        0.350000       1.00800           0
       860 MEMB     8        OSM      C2S      CTL1     0.300000       12.0110           0
       861 MEMB     8        OSM      H2S      HAL1     0.500000E-01   1.00800           0
       862 MEMB     8        OSM      C3S      CTO1     0.500000       12.0110           0
       863 MEMB     8        OSM      H3S      HAL1    -0.110000       1.00800           0
       864 MEMB     8        OSM      O3       OHL     -0.690000       15.9994           0
       865 MEMB     8        OSM      HO3      HOL      0.300000       1.00800           0
       866 MEMB     8        OSM      C4S      CEL3    -0.150000       12.0110           0
       867 MEMB     8        OSM      H4S      HEL1     0.150000       1.00800           0
       868 MEMB     8        OSM      C5S      CEL3    -0.150000       12.0110           0
       869 MEMB     8        OSM      H5S      HEL1     0.150000       1.00800           0
       870 MEMB     8        OSM      C6S      CTL2    -0.180000       12.0110           0
       871 MEMB     8        OSM      H6S      HAL2     0.900000E-01   1.00800           0
       872 MEMB     8        OSM      H6T      HAL2     0.900000E-01   1.00800           0
       873 MEMB     8        OSM      C7S      CTL2    -0.180000       12.0110           0
       874 MEMB     8        OSM      H7S      HAL2     0.900000E-01   1.00800           0
       875 MEMB     8        OSM      H7T      HAL2     0.900000E-01   1.00800           0
       876 MEMB     8        OSM      C8S      CTL2    -0.180000       12.0110           0
       877 MEMB     8        OSM      H8S      HAL2     0.900000E-01   1.00800           0
       878 MEMB     8        OSM      H8T      HAL2     0.900000E-01   1.00800           0
       879 MEMB     8        OSM      C9S      CTL2    -0.180000       12.0110           0
       880 MEMB     8        OSM      H9S      HAL2     0.900000E-01   1.00800           0
       881 MEMB     8        OSM      H9T      HAL2     0.900000E-01   1.00800           0
       882 MEMB     8        OSM      C10S     CTL2    -0.180000       12.0110           0
       883 MEMB     8        OSM      H10S     HAL2     0.900000E-01   1.00800           0
       884 MEMB     8        OSM      H10T     HAL2     0.900000E-01   1.00800           0
       885 MEMB     8        OSM      C11S     CTL2    -0.180000       12.0110           0
       886 MEMB     8        OSM      H11S     HAL2     0.900000E-01   1.00800           0
       887 MEMB     8        OSM      H11T     HAL2     0.900000E-01   1.00800           0
       888 MEMB     8        OSM      C12S     CTL2    -0.180000       12.0110           0
       889 MEMB     8        OSM      H12S     HAL2     0.900000E-01   1.00800           0
       890 MEMB     8        OSM      H12T     HAL2     0.900000E-01   1.00800           0
       891 MEMB     8        OSM      C13S     CTL2    -0.180000       12.0110           0
       892 MEMB     8        OSM      H13S     HAL2     0.900000E-01   1.00800           0
       893 MEMB     8        OSM      H13T     HAL2     0.900000E-01   1.00800           0
       894 MEMB     8        OSM      C14S     CTL2    -0.180000       12.0110           0
       895 MEMB     8        OSM      H14S     HAL2     0.900000E-01   1.00800           0
       896 MEMB     8        OSM      H14T     HAL2     0.900000E-01   1.00800           0
       897 MEMB     8        OSM      C15S     CTL2    -0.180000       12.0110           0
       898 MEMB     8        OSM      H15S     HAL2     0.900000E-01   1.00800           0
       899 MEMB     8        OSM      H15T     HAL2     0.900000E-01   1.00800           0
       900 MEMB     8        OSM      C16S     CTL2    -0.180000       12.0110           0
       901 MEMB     8        OSM      H16S     HAL2     0.900000E-01   1.00800           0
       902 MEMB     8        OSM      H16T     HAL2     0.900000E-01   1.00800           0
       903 MEMB     8        OSM      C17S     CTL2    -0.180000       12.0110           0
       904 MEMB     8        OSM      H17S     HAL2     0.900000E-01   1.00800           0
       905 MEMB     8        OSM      H17T     HAL2     0.900000E-01   1.00800           0
       906 MEMB     8        OSM      C18S     CTL3    -0.270000       12.0110           0
       907 MEMB     8        OSM      H18S     HAL3     0.900000E-01   1.00800           0
       908 MEMB     8        OSM      H18T     HAL3     0.900000E-01   1.00800           0
       909 MEMB     8        OSM      H18U     HAL3     0.900000E-01   1.00800           0
       910 MEMB     8        OSM      C1F      C        0.550000       12.0110           0
       911 MEMB     8        OSM      OF       O       -0.600000       15.9994           0
       912 MEMB     8        OSM      C2F      CTL2    -0.700000E-01   12.0110           0
       913 MEMB     8        OSM      H2F      HAL2     0.600000E-01   1.00800           0
       914 MEMB     8        OSM      H2G      HAL2     0.600000E-01   1.00800           0
       915 MEMB     8        OSM      C3F      CTL2    -0.180000       12.0110           0
       916 MEMB     8        OSM      H3F      HAL2     0.900000E-01   1.00800           0
       917 MEMB     8        OSM      H3G      HAL2     0.900000E-01   1.00800           0
       918 MEMB     8        OSM      C4F      CTL2    -0.180000       12.0110           0
       919 MEMB     8        OSM      H4F      HAL2     0.900000E-01   1.00800           0
       920 MEMB     8        OSM      H4G      HAL2     0.900000E-01   1.00800           0
       921 MEMB     8        OSM      C5F      CTL2    -0.180000       12.0110           0
       922 MEMB     8        OSM      H5F      HAL2     0.900000E-01   1.00800           0
       923 MEMB     8        OSM      H5G      HAL2     0.900000E-01   1.00800           0
       924 MEMB     8        OSM      C6F      CTL2    -0.180000       12.0110           0
       925 MEMB     8        OSM      H6F      HAL2     0.900000E-01   1.00800           0
       926 MEMB     8        OSM      H6G      HAL2     0.900000E-01   1.00800           0
       927 MEMB     8        OSM      C7F      CTL2    -0.180000       12.0110           0
       928 MEMB     8        OSM      H7F      HAL2     0.900000E-01   1.00800           0
       929 MEMB     8        OSM      H7G      HAL2     0.900000E-01   1.00800           0
       930 MEMB     8        OSM      C8F      CTL2    -0.180000       12.0110           0
       931 MEMB     8        OSM      H8F      HAL2     0.900000E-01   1.00800           0
       932 MEMB     8        OSM      H8G      HAL2     0.900000E-01   1.00800           0
       933 MEMB     8        OSM      C9F      CEL1    -0.150000       12.0110           0
       934 MEMB     8        OSM      H9F      HEL1     0.150000       1.00800           0
       935 MEMB     8        OSM      C10F     CEL1    -0.150000       12.0110           0
       936 MEMB     8        OSM      H10F     HEL1     0.150000       1.00800           0
       937 MEMB     8        OSM      C11F     CTL2    -0.180000       12.0110           0
       938 MEMB     8        OSM      H11F     HAL2     0.900000E-01   1.00800           0
       939 MEMB     8        OSM      H11G     HAL2     0.900000E-01   1.00800           0
       940 MEMB     8        OSM      C12F     CTL2    -0.180000       12.0110           0
       941 MEMB     8        OSM      H12F     HAL2     0.900000E-01   1.00800           0
       942 MEMB     8        OSM      H12G     HAL2     0.900000E-01   1.00800           0
       943 MEMB     8        OSM      C13F     CTL2    -0.180000       12.0110           0
       944 MEMB     8        OSM      H13F     HAL2     0.900000E-01   1.00800           0
       945 MEMB     8        OSM      H13G     HAL2     0.900000E-01   1.00800           0
       946 MEMB     8        OSM      C14F     CTL2    -0.180000       12.0110           0
       947 MEMB     8        OSM      H14F     HAL2     0.900000E-01   1.00800           0
       948 MEMB     8        OSM      H14G     HAL2     0.900000E-01   1.00800           0
       949 MEMB     8        OSM      C15F     CTL2    -0.180000       12.0110           0
       950 MEMB     8        OSM      H15F     HAL2     0.900000E-01   1.00800           0
       951 MEMB     8        OSM      H15G     HAL2     0.900000E-01   1.00800           0
       952 MEMB     8        OSM      C16F     CTL2    -0.180000       12.0110           0
       953 MEMB     8        OSM      H16F     HAL2     0.900000E-01   1.00800           0
       954 MEMB     8        OSM      H16G     HAL2     0.900000E-01   1.00800           0
       955 MEMB     8        OSM      C17F     CTL2    -0.180000       12.0110           0
       956 MEMB     8        OSM      H17F     HAL2     0.900000E-01   1.00800           0
       957 MEMB     8        OSM      H17G     HAL2     0.900000E-01   1.00800           0
       958 MEMB     8        OSM      C18F     CTL3    -0.270000       12.0110           0
       959 MEMB     8        OSM      H18F     HAL3     0.900000E-01   1.00800           0
       960 MEMB     8        OSM      H18G     HAL3     0.900000E-01   1.00800           0
       961 MEMB     8        OSM      H18H     HAL3     0.900000E-01   1.00800           0
       962 MEMB     9        SAPE     N        NH3L    -0.300000       14.0070           0
       963 MEMB     9        SAPE     HN1      HCL      0.330000       1.00800           0
       964 MEMB     9        SAPE     HN2      HCL      0.330000       1.00800           0
       965 MEMB     9        SAPE     HN3      HCL      0.330000       1.00800           0
       966 MEMB     9        SAPE     C12      CTL2     0.130000       12.0110           0
       967 MEMB     9        SAPE     H12A     HAL2     0.900000E-01   1.00800           0
       968 MEMB     9        SAPE     H12B     HAL2     0.900000E-01   1.00800           0
       969 MEMB     9        SAPE     C11      CTL2    -0.800000E-01   12.0110           0
       970 MEMB     9        SAPE     H11A     HAL2     0.900000E-01   1.00800           0
       971 MEMB     9        SAPE     H11B     HAL2     0.900000E-01   1.00800           0
       972 MEMB     9        SAPE     P        PL        1.50000       30.9740           0
       973 MEMB     9        SAPE     O13      O2L     -0.780000       15.9994           0
       974 MEMB     9        SAPE     O14      O2L     -0.780000       15.9994           0
       975 MEMB     9        SAPE     O12      OSLP    -0.570000       15.9994           0
       976 MEMB     9        SAPE     O11      OSLP    -0.570000       15.9994           0
       977 MEMB     9        SAPE     C1       CTL2    -0.800000E-01   12.0110           0
       978 MEMB     9        SAPE     HA       HAL2     0.900000E-01   1.00800           0
       979 MEMB     9        SAPE     HB       HAL2     0.900000E-01   1.00800           0
       980 MEMB     9        SAPE     C2       CTL1     0.170000       12.0110           0
       981 MEMB     9        SAPE     HS       HAL1     0.900000E-01   1.00800           0
       982 MEMB     9        SAPE     O21      OSL     -0.490000       15.9994           0
       983 MEMB     9        SAPE     C21      CL       0.900000       12.0110           0
       984 MEMB     9        SAPE     O22      OBL     -0.630000       15.9994           0
       985 MEMB     9        SAPE     C22      CTL2    -0.220000       12.0110           0
       986 MEMB     9        SAPE     H2R      HAL2     0.900000E-01   1.00800           0
       987 MEMB     9        SAPE     H2S      HAL2     0.900000E-01   1.00800           0
       988 MEMB     9        SAPE     C3       CTL2     0.800000E-01   12.0110           0
       989 MEMB     9        SAPE     HX       HAL2     0.900000E-01   1.00800           0
       990 MEMB     9        SAPE     HY       HAL2     0.900000E-01   1.00800           0
       991 MEMB     9        SAPE     O31      OSL     -0.490000       15.9994           0
       992 MEMB     9        SAPE     C31      CL       0.900000       12.0110           0
       993 MEMB     9        SAPE     O32      OBL     -0.630000       15.9994           0
       994 MEMB     9        SAPE     C32      CTL2    -0.220000       12.0110           0
       995 MEMB     9        SAPE     H2X      HAL2     0.900000E-01   1.00800           0
       996 MEMB     9        SAPE     H2Y      HAL2     0.900000E-01   1.00800           0
       997 MEMB     9        SAPE     C23      CTL2    -0.180000       12.0110           0
       998 MEMB     9        SAPE     H3R      HAL2     0.900000E-01   1.00800           0
       999 MEMB     9        SAPE     H3S      HAL2     0.900000E-01   1.00800           0
      1000 MEMB     9        SAPE     C24      CTL2    -0.180000       12.0110           0
      1001 MEMB     9        SAPE     H4R      HAL2     0.900000E-01   1.00800           0
      1002 MEMB     9        SAPE     H4S      HAL2     0.900000E-01   1.00800           0
      1003 MEMB     9        SAPE     C25      CEL1    -0.150000       12.0110           0
      1004 MEMB     9        SAPE     H5R      HEL1     0.150000       1.00800           0
      1005 MEMB     9        SAPE     C26      CEL1    -0.150000       12.0110           0
      1006 MEMB     9        SAPE     H6R      HEL1     0.150000       1.00800           0
      1007 MEMB     9        SAPE     C27      CTL2    -0.180000       12.0110           0
      1008 MEMB     9        SAPE     H7R      HAL2     0.900000E-01   1.00800           0
      1009 MEMB     9        SAPE     H7S      HAL2     0.900000E-01   1.00800           0
      1010 MEMB     9        SAPE     C28      CEL1    -0.150000       12.0110           0
      1011 MEMB     9        SAPE     H8R      HEL1     0.150000       1.00800           0
      1012 MEMB     9        SAPE     C29      CEL1    -0.150000       12.0110           0
      1013 MEMB     9        SAPE     H9R      HEL1     0.150000       1.00800           0
      1014 MEMB     9        SAPE     C210     CTL2    -0.180000       12.0110           0
      1015 MEMB     9        SAPE     H10R     HAL2     0.900000E-01   1.00800           0
      1016 MEMB     9        SAPE     H10S     HAL2     0.900000E-01   1.00800           0
      1017 MEMB     9        SAPE     C211     CEL1    -0.150000       12.0110           0
      1018 MEMB     9        SAPE     H11R     HEL1     0.150000       1.00800           0
      1019 MEMB     9        SAPE     C212     CEL1    -0.150000       12.0110           0
      1020 MEMB     9        SAPE     H12R     HEL1     0.150000       1.00800           0
      1021 MEMB     9        SAPE     C213     CTL2    -0.180000       12.0110           0
      1022 MEMB     9        SAPE     H13R     HAL2     0.900000E-01   1.00800           0
      1023 MEMB     9        SAPE     H13S     HAL2     0.900000E-01   1.00800           0
      1024 MEMB     9        SAPE     C214     CEL1    -0.150000       12.0110           0
      1025 MEMB     9        SAPE     H14R     HEL1     0.150000       1.00800           0
      1026 MEMB     9        SAPE     C215     CEL1    -0.150000       12.0110           0
      1027 MEMB     9        SAPE     H15R     HEL1     0.150000       1.00800           0
      1028 MEMB     9        SAPE     C216     CTL2    -0.180000       12.0110           0
      1029 MEMB     9        SAPE     H16R     HAL2     0.900000E-01   1.00800           0
      1030 MEMB     9        SAPE     H16S     HAL2     0.900000E-01   1.00800           0
      1031 MEMB     9        SAPE     C217     CTL2    -0.180000       12.0110           0
      1032 MEMB     9        SAPE     H17R     HAL2     0.900000E-01   1.00800           0
      1033 MEMB     9        SAPE     H17S     HAL2     0.900000E-01   1.00800           0
      1034 MEMB     9        SAPE     C218     CTL2    -0.180000       12.0110           0
      1035 MEMB     9        SAPE     H18R     HAL2     0.900000E-01   1.00800           0
      1036 MEMB     9        SAPE     H18S     HAL2     0.900000E-01   1.00800           0
      1037 MEMB     9        SAPE     C219     CTL2    -0.180000       12.0110           0
      1038 MEMB     9        SAPE     H19R     HAL2     0.900000E-01   1.00800           0
      1039 MEMB     9        SAPE     H19S     HAL2     0.900000E-01   1.00800           0
      1040 MEMB     9        SAPE     C220     CTL3    -0.270000       12.0110           0
      1041 MEMB     9        SAPE     H20R     HAL3     0.900000E-01   1.00800           0
      1042 MEMB     9        SAPE     H20S     HAL3     0.900000E-01   1.00800           0
      1043 MEMB     9        SAPE     H20T     HAL3     0.900000E-01   1.00800           0
      1044 MEMB     9        SAPE     C33      CTL2    -0.180000       12.0110           0
      1045 MEMB     9        SAPE     H3X      HAL2     0.900000E-01   1.00800           0
      1046 MEMB     9        SAPE     H3Y      HAL2     0.900000E-01   1.00800           0
      1047 MEMB     9        SAPE     C34      CTL2    -0.180000       12.0110           0
      1048 MEMB     9        SAPE     H4X      HAL2     0.900000E-01   1.00800           0
      1049 MEMB     9        SAPE     H4Y      HAL2     0.900000E-01   1.00800           0
      1050 MEMB     9        SAPE     C35      CTL2    -0.180000       12.0110           0
      1051 MEMB     9        SAPE     H5X      HAL2     0.900000E-01   1.00800           0
      1052 MEMB     9        SAPE     H5Y      HAL2     0.900000E-01   1.00800           0
      1053 MEMB     9        SAPE     C36      CTL2    -0.180000       12.0110           0
      1054 MEMB     9        SAPE     H6X      HAL2     0.900000E-01   1.00800           0
      1055 MEMB     9        SAPE     H6Y      HAL2     0.900000E-01   1.00800           0
      1056 MEMB     9        SAPE     C37      CTL2    -0.180000       12.0110           0
      1057 MEMB     9        SAPE     H7X      HAL2     0.900000E-01   1.00800           0
      1058 MEMB     9        SAPE     H7Y      HAL2     0.900000E-01   1.00800           0
      1059 MEMB     9        SAPE     C38      CTL2    -0.180000       12.0110           0
      1060 MEMB     9        SAPE     H8X      HAL2     0.900000E-01   1.00800           0
      1061 MEMB     9        SAPE     H8Y      HAL2     0.900000E-01   1.00800           0
      1062 MEMB     9        SAPE     C39      CTL2    -0.180000       12.0110           0
      1063 MEMB     9        SAPE     H9X      HAL2     0.900000E-01   1.00800           0
      1064 MEMB     9        SAPE     H9Y      HAL2     0.900000E-01   1.00800           0
      1065 MEMB     9        SAPE     C310     CTL2    -0.180000       12.0110           0
      1066 MEMB     9        SAPE     H10X     HAL2     0.900000E-01   1.00800           0
      1067 MEMB     9        SAPE     H10Y     HAL2     0.900000E-01   1.00800           0
      1068 MEMB     9        SAPE     C311     CTL2    -0.180000       12.0110           0
      1069 MEMB     9        SAPE     H11X     HAL2     0.900000E-01   1.00800           0
      1070 MEMB     9        SAPE     H11Y     HAL2     0.900000E-01   1.00800           0
      1071 MEMB     9        SAPE     C312     CTL2    -0.180000       12.0110           0
      1072 MEMB     9        SAPE     H12X     HAL2     0.900000E-01   1.00800           0
      1073 MEMB     9        SAPE     H12Y     HAL2     0.900000E-01   1.00800           0
      1074 MEMB     9        SAPE     C313     CTL2    -0.180000       12.0110           0
      1075 MEMB     9        SAPE     H13X     HAL2     0.900000E-01   1.00800           0
      1076 MEMB     9        SAPE     H13Y     HAL2     0.900000E-01   1.00800           0
      1077 MEMB     9        SAPE     C314     CTL2    -0.180000       12.0110           0
      1078 MEMB     9        SAPE     H14X     HAL2     0.900000E-01   1.00800           0
      1079 MEMB     9        SAPE     H14Y     HAL2     0.900000E-01   1.00800           0
      1080 MEMB     9        SAPE     C315     CTL2    -0.180000       12.0110           0
      1081 MEMB     9        SAPE     H15X     HAL2     0.900000E-01   1.00800           0
      1082 MEMB     9        SAPE     H15Y     HAL2     0.900000E-01   1.00800           0
      1083 MEMB     9        SAPE     C316     CTL2    -0.180000       12.0110           0
      1084 MEMB     9        SAPE     H16X     HAL2     0.900000E-01   1.00800           0
      1085 MEMB     9        SAPE     H16Y     HAL2     0.900000E-01   1.00800           0
      1086 MEMB     9        SAPE     C317     CTL2    -0.180000       12.0110           0
      1087 MEMB     9        SAPE     H17X     HAL2     0.900000E-01   1.00800           0
      1088 MEMB     9        SAPE     H17Y     HAL2     0.900000E-01   1.00800           0
      1089 MEMB     9        SAPE     C318     CTL3    -0.270000       12.0110           0
      1090 MEMB     9        SAPE     H18X     HAL3     0.900000E-01   1.00800           0
      1091 MEMB     9        SAPE     H18Y     HAL3     0.900000E-01   1.00800           0
      1092 MEMB     9        SAPE     H18Z     HAL3     0.900000E-01   1.00800           0
      1093 MEMB     10       OSM      N        NTL     -0.600000       14.0070           0
      1094 MEMB     10       OSM      C15      CTL5    -0.350000       12.0110           0
      1095 MEMB     10       OSM      H15A     HL       0.250000       1.00800           0
      1096 MEMB     10       OSM      H15B     HL       0.250000       1.00800           0
      1097 MEMB     10       OSM      H15C     HL       0.250000       1.00800           0
      1098 MEMB     10       OSM      C14      CTL5    -0.350000       12.0110           0
      1099 MEMB     10       OSM      H14A     HL       0.250000       1.00800           0
      1100 MEMB     10       OSM      H14B     HL       0.250000       1.00800           0
      1101 MEMB     10       OSM      H14C     HL       0.250000       1.00800           0
      1102 MEMB     10       OSM      C13      CTL5    -0.350000       12.0110           0
      1103 MEMB     10       OSM      H13A     HL       0.250000       1.00800           0
      1104 MEMB     10       OSM      H13B     HL       0.250000       1.00800           0
      1105 MEMB     10       OSM      H13C     HL       0.250000       1.00800           0
      1106 MEMB     10       OSM      C12      CTL2    -0.100000       12.0110           0
      1107 MEMB     10       OSM      H12A     HL       0.250000       1.00800           0
      1108 MEMB     10       OSM      H12B     HL       0.250000       1.00800           0
      1109 MEMB     10       OSM      C11      CTL2    -0.800000E-01   12.0110           0
      1110 MEMB     10       OSM      H11A     HAL2     0.900000E-01   1.00800           0
      1111 MEMB     10       OSM      H11B     HAL2     0.900000E-01   1.00800           0
      1112 MEMB     10       OSM      P        PL        1.50000       30.9740           0
      1113 MEMB     10       OSM      O13      O2L     -0.780000       15.9994           0
      1114 MEMB     10       OSM      O14      O2L     -0.780000       15.9994           0
      1115 MEMB     10       OSM      O11      OSLP    -0.570000       15.9994           0
      1116 MEMB     10       OSM      O12      OSLP    -0.570000       15.9994           0
      1117 MEMB     10       OSM      C1S      CTL2    -0.800000E-01   12.0110           0
      1118 MEMB     10       OSM      H1S      HAL2     0.900000E-01   1.00800           0
      1119 MEMB     10       OSM      H1T      HAL2     0.900000E-01   1.00800           0
      1120 MEMB     10       OSM      NF       NHL     -0.700000       14.0070           0
      1121 MEMB     10       OSM      HNF      H        0.350000       1.00800           0
      1122 MEMB     10       OSM      C2S      CTL1     0.300000       12.0110           0
      1123 MEMB     10       OSM      H2S      HAL1     0.500000E-01   1.00800           0
      1124 MEMB     10       OSM      C3S      CTO1     0.500000       12.0110           0
      1125 MEMB     10       OSM      H3S      HAL1    -0.110000       1.00800           0
      1126 MEMB     10       OSM      O3       OHL     -0.690000       15.9994           0
      1127 MEMB     10       OSM      HO3      HOL      0.300000       1.00800           0
      1128 MEMB     10       OSM      C4S      CEL3    -0.150000       12.0110           0
      1129 MEMB     10       OSM      H4S      HEL1     0.150000       1.00800           0
      1130 MEMB     10       OSM      C5S      CEL3    -0.150000       12.0110           0
      1131 MEMB     10       OSM      H5S      HEL1     0.150000       1.00800           0
      1132 MEMB     10       OSM      C6S      CTL2    -0.180000       12.0110           0
      1133 MEMB     10       OSM      H6S      HAL2     0.900000E-01   1.00800           0
      1134 MEMB     10       OSM      H6T      HAL2     0.900000E-01   1.00800           0
      1135 MEMB     10       OSM      C7S      CTL2    -0.180000       12.0110           0
      1136 MEMB     10       OSM      H7S      HAL2     0.900000E-01   1.00800           0
      1137 MEMB     10       OSM      H7T      HAL2     0.900000E-01   1.00800           0
      1138 MEMB     10       OSM      C8S      CTL2    -0.180000       12.0110           0
      1139 MEMB     10       OSM      H8S      HAL2     0.900000E-01   1.00800           0
      1140 MEMB     10       OSM      H8T      HAL2     0.900000E-01   1.00800           0
      1141 MEMB     10       OSM      C9S      CTL2    -0.180000       12.0110           0
      1142 MEMB     10       OSM      H9S      HAL2     0.900000E-01   1.00800           0
      1143 MEMB     10       OSM      H9T      HAL2     0.900000E-01   1.00800           0
      1144 MEMB     10       OSM      C10S     CTL2    -0.180000       12.0110           0
      1145 MEMB     10       OSM      H10S     HAL2     0.900000E-01   1.00800           0
      1146 MEMB     10       OSM      H10T     HAL2     0.900000E-01   1.00800           0
      1147 MEMB     10       OSM      C11S     CTL2    -0.180000       12.0110           0
      1148 MEMB     10       OSM      H11S     HAL2     0.900000E-01   1.00800           0
      1149 MEMB     10       OSM      H11T     HAL2     0.900000E-01   1.00800           0
      1150 MEMB     10       OSM      C12S     CTL2    -0.180000       12.0110           0
      1151 MEMB     10       OSM      H12S     HAL2     0.900000E-01   1.00800           0
      1152 MEMB     10       OSM      H12T     HAL2     0.900000E-01   1.00800           0
      1153 MEMB     10       OSM      C13S     CTL2    -0.180000       12.0110           0
      1154 MEMB     10       OSM      H13S     HAL2     0.900000E-01   1.00800           0
      1155 MEMB     10       OSM      H13T     HAL2     0.900000E-01   1.00800           0
      1156 MEMB     10       OSM      C14S     CTL2    -0.180000       12.0110           0
      1157 MEMB     10       OSM      H14S     HAL2     0.900000E-01   1.00800           0
      1158 MEMB     10       OSM      H14T     HAL2     0.900000E-01   1.00800           0
      1159 MEMB     10       OSM      C15S     CTL2    -0.180000       12.0110           0
      1160 MEMB     10       OSM      H15S     HAL2     0.900000E-01   1.00800           0
      1161 MEMB     10       OSM      H15T     HAL2     0.900000E-01   1.00800           0
      1162 MEMB     10       OSM      C16S     CTL2    -0.180000       12.0110           0
      1163 MEMB     10       OSM      H16S     HAL2     0.900000E-01   1.00800           0
      1164 MEMB     10       OSM      H16T     HAL2     0.900000E-01   1.00800           0
      1165 MEMB     10       OSM      C17S     CTL2    -0.180000       12.0110           0
      1166 MEMB     10       OSM      H17S     HAL2     0.900000E-01   1.00800           0
      1167 MEMB     10       OSM      H17T     HAL2     0.900000E-01   1.00800           0
      1168 MEMB     10       OSM      C18S     CTL3    -0.270000       12.0110           0
      1169 MEMB     10       OSM      H18S     HAL3     0.900000E-01   1.00800           0
      1170 MEMB     10       OSM      H18T     HAL3     0.900000E-01   1.00800           0
      1171 MEMB     10       OSM      H18U     HAL3     0.900000E-01   1.00800           0
      1172 MEMB     10       OSM      C1F      C        0.550000       12.0110           0
      1173 MEMB     10       OSM      OF       O       -0.600000       15.9994           0
      1174 MEMB     10       OSM      C2F      CTL2    -0.700000E-01   12.0110           0
      1175 MEMB     10       OSM      H2F      HAL2     0.600000E-01   1.00800           0
      1176 MEMB     10       OSM      H2G      HAL2     0.600000E-01   1.00800           0
      1177 MEMB     10       OSM      C3F      CTL2    -0.180000       12.0110           0
      1178 MEMB     10       OSM      H3F      HAL2     0.900000E-01   1.00800           0
      1179 MEMB     10       OSM      H3G      HAL2     0.900000E-01   1.00800           0
      1180 MEMB     10       OSM      C4F      CTL2    -0.180000       12.0110           0
      1181 MEMB     10       OSM      H4F      HAL2     0.900000E-01   1.00800           0
      1182 MEMB     10       OSM      H4G      HAL2     0.900000E-01   1.00800           0
      1183 MEMB     10       OSM      C5F      CTL2    -0.180000       12.0110           0
      1184 MEMB     10       OSM      H5F      HAL2     0.900000E-01   1.00800           0
      1185 MEMB     10       OSM      H5G      HAL2     0.900000E-01   1.00800           0
      1186 MEMB     10       OSM      C6F      CTL2    -0.180000       12.0110           0
      1187 MEMB     10       OSM      H6F      HAL2     0.900000E-01   1.00800           0
      1188 MEMB     10       OSM      H6G      HAL2     0.900000E-01   1.00800           0
      1189 MEMB     10       OSM      C7F      CTL2    -0.180000       12.0110           0
      1190 MEMB     10       OSM      H7F      HAL2     0.900000E-01   1.00800           0
      1191 MEMB     10       OSM      H7G      HAL2     0.900000E-01   1.00800           0
      1192 MEMB     10       OSM      C8F      CTL2    -0.180000       12.0110           0
      1193 MEMB     10       OSM      H8F      HAL2     0.900000E-01   1.00800           0
      1194 MEMB     10       OSM      H8G      HAL2     0.900000E-01   1.00800           0
      1195 MEMB     10       OSM      C9F      CEL1    -0.150000       12.0110           0
      1196 MEMB     10       OSM      H9F      HEL1     0.150000       1.00800           0
      1197 MEMB     10       OSM      C10F     CEL1    -0.150000       12.0110           0
      1198 MEMB     10       OSM      H10F     HEL1     0.150000       1.00800           0
      1199 MEMB     10       OSM      C11F     CTL2    -0.180000       12.0110           0
      1200 MEMB     10       OSM      H11F     HAL2     0.900000E-01   1.00800           0
      1201 MEMB     10       OSM      H11G     HAL2     0.900000E-01   1.00800           0
      1202 MEMB     10       OSM      C12F     CTL2    -0.180000       12.0110           0
      1203 MEMB     10       OSM      H12F     HAL2     0.900000E-01   1.00800           0
      1204 MEMB     10       OSM      H12G     HAL2     0.900000E-01   1.00800           0
      1205 MEMB     10       OSM      C13F     CTL2    -0.180000       12.0110           0
      1206 MEMB     10       OSM      H13F     HAL2     0.900000E-01   1.00800           0
      1207 MEMB     10       OSM      H13G     HAL2     0.900000E-01   1.00800           0
      1208 MEMB     10       OSM      C14F     CTL2    -0.180000       12.0110           0
      1209 MEMB     10       OSM      H14F     HAL2     0.900000E-01   1.00800           0
      1210 MEMB     10       OSM      H14G     HAL2     0.900000E-01   1.00800           0
      1211 MEMB     10       OSM      C15F     CTL2    -0.180000       12.0110           0
      1212 MEMB     10       OSM      H15F     HAL2     0.900000E-01   1.00800           0
      1213 MEMB     10       OSM      H15G     HAL2     0.900000E-01   1.00800           0
      1214 MEMB     10       OSM      C16F     CTL2    -0.180000       12.0110           0
      1215 MEMB     10       OSM      H16F     HAL2     0.900000E-01   1.00800           0
      1216 MEMB     10       OSM      H16G     HAL2     0.900000E-01   1.00800           0
      1217 MEMB     10       OSM      C17F     CTL2    -0.180000       12.0110           0
      1218 MEMB     10       OSM      H17F     HAL2     0.900000E-01   1.00800           0
      1219 MEMB     10       OSM      H17G     HAL2     0.900000E-01   1.00800           0
      1220 MEMB     10       OSM      C18F     CTL3    -0.270000       12.0110           0
      1221 MEMB     10       OSM      H18F     HAL3     0.900000E-01   1.00800           0
      1222 MEMB     10       OSM      H18G     HAL3     0.900000E-01   1.00800           0
      1223 MEMB     10       OSM      H18H     HAL3     0.900000E-01   1.00800           0
      1224 MEMB     11       SOPE     N        NH3L    -0.300000       14.0070           0
      1225 MEMB     11       SOPE     HN1      HCL      0.330000       1.00800           0
      1226 MEMB     11       SOPE     HN2      HCL      0.330000       1.00800           0
      1227 MEMB     11       SOPE     HN3      HCL      0.330000       1.00800           0
      1228 MEMB     11       SOPE     C12      CTL2     0.130000       12.0110           0
      1229 MEMB     11       SOPE     H12A     HAL2     0.900000E-01   1.00800           0
      1230 MEMB     11       SOPE     H12B     HAL2     0.900000E-01   1.00800           0
      1231 MEMB     11       SOPE     C11      CTL2    -0.800000E-01   12.0110           0
      1232 MEMB     11       SOPE     H11A     HAL2     0.900000E-01   1.00800           0
      1233 MEMB     11       SOPE     H11B     HAL2     0.900000E-01   1.00800           0
      1234 MEMB     11       SOPE     P        PL        1.50000       30.9740           0
      1235 MEMB     11       SOPE     O13      O2L     -0.780000       15.9994           0
      1236 MEMB     11       SOPE     O14      O2L     -0.780000       15.9994           0
      1237 MEMB     11       SOPE     O12      OSLP    -0.570000       15.9994           0
      1238 MEMB     11       SOPE     O11      OSLP    -0.570000       15.9994           0
      1239 MEMB     11       SOPE     C1       CTL2    -0.800000E-01   12.0110           0
      1240 MEMB     11       SOPE     HA       HAL2     0.900000E-01   1.00800           0
      1241 MEMB     11       SOPE     HB       HAL2     0.900000E-01   1.00800           0
      1242 MEMB     11       SOPE     C2       CTL1     0.170000       12.0110           0
      1243 MEMB     11       SOPE     HS       HAL1     0.900000E-01   1.00800           0
      1244 MEMB     11       SOPE     O21      OSL     -0.490000       15.9994           0
      1245 MEMB     11       SOPE     C21      CL       0.900000       12.0110           0
      1246 MEMB     11       SOPE     O22      OBL     -0.630000       15.9994           0
      1247 MEMB     11       SOPE     C22      CTL2    -0.220000       12.0110           0
      1248 MEMB     11       SOPE     H2R      HAL2     0.900000E-01   1.00800           0
      1249 MEMB     11       SOPE     H2S      HAL2     0.900000E-01   1.00800           0
      1250 MEMB     11       SOPE     C3       CTL2     0.800000E-01   12.0110           0
      1251 MEMB     11       SOPE     HX       HAL2     0.900000E-01   1.00800           0
      1252 MEMB     11       SOPE     HY       HAL2     0.900000E-01   1.00800           0
      1253 MEMB     11       SOPE     O31      OSL     -0.490000       15.9994           0
      1254 MEMB     11       SOPE     C31      CL       0.900000       12.0110           0
      1255 MEMB     11       SOPE     O32      OBL     -0.630000       15.9994           0
      1256 MEMB     11       SOPE     C32      CTL2    -0.220000       12.0110           0
      1257 MEMB     11       SOPE     H2X      HAL2     0.900000E-01   1.00800           0
      1258 MEMB     11       SOPE     H2Y      HAL2     0.900000E-01   1.00800           0
      1259 MEMB     11       SOPE     C23      CTL2    -0.180000       12.0110           0
      1260 MEMB     11       SOPE     H3R      HAL2     0.900000E-01   1.00800           0
      1261 MEMB     11       SOPE     H3S      HAL2     0.900000E-01   1.00800           0
      1262 MEMB     11       SOPE     C24      CTL2    -0.180000       12.0110           0
      1263 MEMB     11       SOPE     H4R      HAL2     0.900000E-01   1.00800           0
      1264 MEMB     11       SOPE     H4S      HAL2     0.900000E-01   1.00800           0
      1265 MEMB     11       SOPE     C25      CTL2    -0.180000       12.0110           0
      1266 MEMB     11       SOPE     H5R      HAL2     0.900000E-01   1.00800           0
      1267 MEMB     11       SOPE     H5S      HAL2     0.900000E-01   1.00800           0
      1268 MEMB     11       SOPE     C26      CTL2    -0.180000       12.0110           0
      1269 MEMB     11       SOPE     H6R      HAL2     0.900000E-01   1.00800           0
      1270 MEMB     11       SOPE     H6S      HAL2     0.900000E-01   1.00800           0
      1271 MEMB     11       SOPE     C27      CTL2    -0.180000       12.0110           0
      1272 MEMB     11       SOPE     H7R      HAL2     0.900000E-01   1.00800           0
      1273 MEMB     11       SOPE     H7S      HAL2     0.900000E-01   1.00800           0
      1274 MEMB     11       SOPE     C28      CTL2    -0.180000       12.0110           0
      1275 MEMB     11       SOPE     H8R      HAL2     0.900000E-01   1.00800           0
      1276 MEMB     11       SOPE     H8S      HAL2     0.900000E-01   1.00800           0
      1277 MEMB     11       SOPE     C29      CEL1    -0.150000       12.0110           0
      1278 MEMB     11       SOPE     H91      HEL1     0.150000       1.00800           0
      1279 MEMB     11       SOPE     C210     CEL1    -0.150000       12.0110           0
      1280 MEMB     11       SOPE     H101     HEL1     0.150000       1.00800           0
      1281 MEMB     11       SOPE     C211     CTL2    -0.180000       12.0110           0
      1282 MEMB     11       SOPE     H11R     HAL2     0.900000E-01   1.00800           0
      1283 MEMB     11       SOPE     H11S     HAL2     0.900000E-01   1.00800           0
      1284 MEMB     11       SOPE     C212     CTL2    -0.180000       12.0110           0
      1285 MEMB     11       SOPE     H12R     HAL2     0.900000E-01   1.00800           0
      1286 MEMB     11       SOPE     H12S     HAL2     0.900000E-01   1.00800           0
      1287 MEMB     11       SOPE     C213     CTL2    -0.180000       12.0110           0
      1288 MEMB     11       SOPE     H13R     HAL2     0.900000E-01   1.00800           0
      1289 MEMB     11       SOPE     H13S     HAL2     0.900000E-01   1.00800           0
      1290 MEMB     11       SOPE     C214     CTL2    -0.180000       12.0110           0
      1291 MEMB     11       SOPE     H14R     HAL2     0.900000E-01   1.00800           0
      1292 MEMB     11       SOPE     H14S     HAL2     0.900000E-01   1.00800           0
      1293 MEMB     11       SOPE     C215     CTL2    -0.180000       12.0110           0
      1294 MEMB     11       SOPE     H15R     HAL2     0.900000E-01   1.00800           0
      1295 MEMB     11       SOPE     H15S     HAL2     0.900000E-01   1.00800           0
      1296 MEMB     11       SOPE     C216     CTL2    -0.180000       12.0110           0
      1297 MEMB     11       SOPE     H16R     HAL2     0.900000E-01   1.00800           0
      1298 MEMB     11       SOPE     H16S     HAL2     0.900000E-01   1.00800           0
      1299 MEMB     11       SOPE     C217     CTL2    -0.180000       12.0110           0
      1300 MEMB     11       SOPE     H17R     HAL2     0.900000E-01   1.00800           0
      1301 MEMB     11       SOPE     H17S     HAL2     0.900000E-01   1.00800           0
      1302 MEMB     11       SOPE     C218     CTL3    -0.270000       12.0110           0
      1303 MEMB     11       SOPE     H18R     HAL3     0.900000E-01   1.00800           0
      1304 MEMB     11       SOPE     H18S     HAL3     0.900000E-01   1.00800           0
      1305 MEMB     11       SOPE     H18T     HAL3     0.900000E-01   1.00800           0
      1306 MEMB     11       SOPE     C33      CTL2    -0.180000       12.0110           0
      1307 MEMB     11       SOPE     H3X      HAL2     0.900000E-01   1.00800           0
      1308 MEMB     11       SOPE     H3Y      HAL2     0.900000E-01   1.00800           0
      1309 MEMB     11       SOPE     C34      CTL2    -0.180000       12.0110           0
      1310 MEMB     11       SOPE     H4X      HAL2     0.900000E-01   1.00800           0
      1311 MEMB     11       SOPE     H4Y      HAL2     0.900000E-01   1.00800           0
      1312 MEMB     11       SOPE     C35      CTL2    -0.180000       12.0110           0
      1313 MEMB     11       SOPE     H5X      HAL2     0.900000E-01   1.00800           0
      1314 MEMB     11       SOPE     H5Y      HAL2     0.900000E-01   1.00800           0
      1315 MEMB     11       SOPE     C36      CTL2    -0.180000       12.0110           0
      1316 MEMB     11       SOPE     H6X      HAL2     0.900000E-01   1.00800           0
      1317 MEMB     11       SOPE     H6Y      HAL2     0.900000E-01   1.00800           0
      1318 MEMB     11       SOPE     C37      CTL2    -0.180000       12.0110           0
      1319 MEMB     11       SOPE     H7X      HAL2     0.900000E-01   1.00800           0
      1320 MEMB     11       SOPE     H7Y      HAL2     0.900000E-01   1.00800           0
      1321 MEMB     11       SOPE     C38      CTL2    -0.180000       12.0110           0
      1322 MEMB     11       SOPE     H8X      HAL2     0.900000E-01   1.00800           0
      1323 MEMB     11       SOPE     H8Y      HAL2     0.900000E-01   1.00800           0
      1324 MEMB     11       SOPE     C39      CTL2    -0.180000       12.0110           0
      1325 MEMB     11       SOPE     H9X      HAL2     0.900000E-01   1.00800           0
      1326 MEMB     11       SOPE     H9Y      HAL2     0.900000E-01   1.00800           0
      1327 MEMB     11       SOPE     C310     CTL2    -0.180000       12.0110           0
      1328 MEMB     11       SOPE     H10X     HAL2     0.900000E-01   1.00800           0
      1329 MEMB     11       SOPE     H10Y     HAL2     0.900000E-01   1.00800           0
      1330 MEMB     11       SOPE     C311     CTL2    -0.180000       12.0110           0
      1331 MEMB     11       SOPE     H11X     HAL2     0.900000E-01   1.00800           0
      1332 MEMB     11       SOPE     H11Y     HAL2     0.900000E-01   1.00800           0
      1333 MEMB     11       SOPE     C312     CTL2    -0.180000       12.0110           0
      1334 MEMB     11       SOPE     H12X     HAL2     0.900000E-01   1.00800           0
      1335 MEMB     11       SOPE     H12Y     HAL2     0.900000E-01   1.00800           0
      1336 MEMB     11       SOPE     C313     CTL2    -0.180000       12.0110           0
      1337 MEMB     11       SOPE     H13X     HAL2     0.900000E-01   1.00800           0
      1338 MEMB     11       SOPE     H13Y     HAL2     0.900000E-01   1.00800           0
      1339 MEMB     11       SOPE     C314     CTL2    -0.180000       12.0110           0
      1340 MEMB     11       SOPE     H14X     HAL2     0.900000E-01   1.00800           0
      1341 MEMB     11       SOPE     H14Y     HAL2     0.900000E-01   1.00800           0
      1342 MEMB     11       SOPE     C315     CTL2    -0.180000       12.0110           0
      1343 MEMB     11       SOPE     H15X     HAL2     0.900000E-01   1.00800           0
      1344 MEMB     11       SOPE     H15Y     HAL2     0.900000E-01   1.00800           0
      1345 MEMB     11       SOPE     C316     CTL2    -0.180000       12.0110           0
      1346 MEMB     11       SOPE     H16X     HAL2     0.900000E-01   1.00800           0
      1347 MEMB     11       SOPE     H16Y     HAL2     0.900000E-01   1.00800           0
      1348 MEMB     11       SOPE     C317     CTL2    -0.180000       12.0110           0
      1349 MEMB     11       SOPE     H17X     HAL2     0.900000E-01   1.00800           0
      1350 MEMB     11       SOPE     H17Y     HAL2     0.900000E-01   1.00800           0
      1351 MEMB     11       SOPE     C318     CTL3    -0.270000       12.0110           0
      1352 MEMB     11       SOPE     H18X     HAL3     0.900000E-01   1.00800           0
      1353 MEMB     11       SOPE     H18Y     HAL3     0.900000E-01   1.00800           0
      1354 MEMB     11       SOPE     H18Z     HAL3     0.900000E-01   1.00800           0
      1355 MEMB     12       OSM      N        NTL     -0.600000       14.0070           0
      1356 MEMB     12       OSM      C15      CTL5    -0.350000       12.0110           0
      1357 MEMB     12       OSM      H15A     HL       0.250000       1.00800           0
      1358 MEMB     12       OSM      H15B     HL       0.250000       1.00800           0
      1359 MEMB     12       OSM      H15C     HL       0.250000       1.00800           0
      1360 MEMB     12       OSM      C14      CTL5    -0.350000       12.0110           0
      1361 MEMB     12       OSM      H14A     HL       0.250000       1.00800           0
      1362 MEMB     12       OSM      H14B     HL       0.250000       1.00800           0
      1363 MEMB     12       OSM      H14C     HL       0.250000       1.00800           0
      1364 MEMB     12       OSM      C13      CTL5    -0.350000       12.0110           0
      1365 MEMB     12       OSM      H13A     HL       0.250000       1.00800           0
      1366 MEMB     12       OSM      H13B     HL       0.250000       1.00800           0
      1367 MEMB     12       OSM      H13C     HL       0.250000       1.00800           0
      1368 MEMB     12       OSM      C12      CTL2    -0.100000       12.0110           0
      1369 MEMB     12       OSM      H12A     HL       0.250000       1.00800           0
      1370 MEMB     12       OSM      H12B     HL       0.250000       1.00800           0
      1371 MEMB     12       OSM      C11      CTL2    -0.800000E-01   12.0110           0
      1372 MEMB     12       OSM      H11A     HAL2     0.900000E-01   1.00800           0
      1373 MEMB     12       OSM      H11B     HAL2     0.900000E-01   1.00800           0
      1374 MEMB     12       OSM      P        PL        1.50000       30.9740           0
      1375 MEMB     12       OSM      O13      O2L     -0.780000       15.9994           0
      1376 MEMB     12       OSM      O14      O2L     -0.780000       15.9994           0
      1377 MEMB     12       OSM      O11      OSLP    -0.570000       15.9994           0
      1378 MEMB     12       OSM      O12      OSLP    -0.570000       15.9994           0
      1379 MEMB     12       OSM      C1S      CTL2    -0.800000E-01   12.0110           0
      1380 MEMB     12       OSM      H1S      HAL2     0.900000E-01   1.00800           0
      1381 MEMB     12       OSM      H1T      HAL2     0.900000E-01   1.00800           0
      1382 MEMB     12       OSM      NF       NHL     -0.700000       14.0070           0
      1383 MEMB     12       OSM      HNF      H        0.350000       1.00800           0
      1384 MEMB     12       OSM      C2S      CTL1     0.300000       12.0110           0
      1385 MEMB     12       OSM      H2S      HAL1     0.500000E-01   1.00800           0
      1386 MEMB     12       OSM      C3S      CTO1     0.500000       12.0110           0
      1387 MEMB     12       OSM      H3S      HAL1    -0.110000       1.00800           0
      1388 MEMB     12       OSM      O3       OHL     -0.690000       15.9994           0
      1389 MEMB     12       OSM      HO3      HOL      0.300000       1.00800           0
      1390 MEMB     12       OSM      C4S      CEL3    -0.150000       12.0110           0
      1391 MEMB     12       OSM      H4S      HEL1     0.150000       1.00800           0
      1392 MEMB     12       OSM      C5S      CEL3    -0.150000       12.0110           0
      1393 MEMB     12       OSM      H5S      HEL1     0.150000       1.00800           0
      1394 MEMB     12       OSM      C6S      CTL2    -0.180000       12.0110           0
      1395 MEMB     12       OSM      H6S      HAL2     0.900000E-01   1.00800           0
      1396 MEMB     12       OSM      H6T      HAL2     0.900000E-01   1.00800           0
      1397 MEMB     12       OSM      C7S      CTL2    -0.180000       12.0110           0
      1398 MEMB     12       OSM      H7S      HAL2     0.900000E-01   1.00800           0
      1399 MEMB     12       OSM      H7T      HAL2     0.900000E-01   1.00800           0
      1400 MEMB     12       OSM      C8S      CTL2    -0.180000       12.0110           0
      1401 MEMB     12       OSM      H8S      HAL2     0.900000E-01   1.00800           0
      1402 MEMB     12       OSM      H8T      HAL2     0.900000E-01   1.00800           0
      1403 MEMB     12       OSM      C9S      CTL2    -0.180000       12.0110           0
      1404 MEMB     12       OSM      H9S      HAL2     0.900000E-01   1.00800           0
      1405 MEMB     12       OSM      H9T      HAL2     0.900000E-01   1.00800           0
      1406 MEMB     12       OSM      C10S     CTL2    -0.180000       12.0110           0
      1407 MEMB     12       OSM      H10S     HAL2     0.900000E-01   1.00800           0
      1408 MEMB     12       OSM      H10T     HAL2     0.900000E-01   1.00800           0
      1409 MEMB     12       OSM      C11S     CTL2    -0.180000       12.0110           0
      1410 MEMB     12       OSM      H11S     HAL2     0.900000E-01   1.00800           0
      1411 MEMB     12       OSM      H11T     HAL2     0.900000E-01   1.00800           0
      1412 MEMB     12       OSM      C12S     CTL2    -0.180000       12.0110           0
      1413 MEMB     12       OSM      H12S     HAL2     0.900000E-01   1.00800           0
      1414 MEMB     12       OSM      H12T     HAL2     0.900000E-01   1.00800           0
      1415 MEMB     12       OSM      C13S     CTL2    -0.180000       12.0110           0
      1416 MEMB     12       OSM      H13S     HAL2     0.900000E-01   1.00800           0
      1417 MEMB     12       OSM      H13T     HAL2     0.900000E-01   1.00800           0
      1418 MEMB     12       OSM      C14S     CTL2    -0.180000       12.0110           0
      1419 MEMB     12       OSM      H14S     HAL2     0.900000E-01   1.00800           0
      1420 MEMB     12       OSM      H14T     HAL2     0.900000E-01   1.00800           0
      1421 MEMB     12       OSM      C15S     CTL2    -0.180000       12.0110           0
      1422 MEMB     12       OSM      H15S     HAL2     0.900000E-01   1.00800           0
      1423 MEMB     12       OSM      H15T     HAL2     0.900000E-01   1.00800           0
      1424 MEMB     12       OSM      C16S     CTL2    -0.180000       12.0110           0
      1425 MEMB     12       OSM      H16S     HAL2     0.900000E-01   1.00800           0
      1426 MEMB     12       OSM      H16T     HAL2     0.900000E-01   1.00800           0
      1427 MEMB     12       OSM      C17S     CTL2    -0.180000       12.0110           0
      1428 MEMB     12       OSM      H17S     HAL2     0.900000E-01   1.00800           0
      1429 MEMB     12       OSM      H17T     HAL2     0.900000E-01   1.00800           0
      1430 MEMB     12       OSM      C18S     CTL3    -0.270000       12.0110           0
      1431 MEMB     12       OSM      H18S     HAL3     0.900000E-01   1.00800           0
      1432 MEMB     12       OSM      H18T     HAL3     0.900000E-01   1.00800           0
      1433 MEMB     12       OSM      H18U     HAL3     0.900000E-01   1.00800           0
      1434 MEMB     12       OSM      C1F      C        0.550000       12.0110           0
      1435 MEMB     12       OSM      OF       O       -0.600000       15.9994           0
      1436 MEMB     12       OSM      C2F      CTL2    -0.700000E-01   12.0110           0
      1437 MEMB     12       OSM      H2F      HAL2     0.600000E-01   1.00800           0
      1438 MEMB     12       OSM      H2G      HAL2     0.600000E-01   1.00800           0
      1439 MEMB     12       OSM      C3F      CTL2    -0.180000       12.0110           0
      1440 MEMB     12       OSM      H3F      HAL2     0.900000E-01   1.00800           0
      1441 MEMB     12       OSM      H3G      HAL2     0.900000E-01   1.00800           0
      1442 MEMB     12       OSM      C4F      CTL2    -0.180000       12.0110           0
      1443 MEMB     12       OSM      H4F      HAL2     0.900000E-01   1.00800           0
      1444 MEMB     12       OSM      H4G      HAL2     0.900000E-01   1.00800           0
      1445 MEMB     12       OSM      C5F      CTL2    -0.180000       12.0110           0
      1446 MEMB     12       OSM      H5F      HAL2     0.900000E-01   1.00800           0
      1447 MEMB     12       OSM      H5G      HAL2     0.900000E-01   1.00800           0
      1448 MEMB     12       OSM      C6F      CTL2    -0.180000       12.0110           0
      1449 MEMB     12       OSM      H6F      HAL2     0.900000E-01   1.00800           0
      1450 MEMB     12       OSM      H6G      HAL2     0.900000E-01   1.00800           0
      1451 MEMB     12       OSM      C7F      CTL2    -0.180000       12.0110           0
      1452 MEMB     12       OSM      H7F      HAL2     0.900000E-01   1.00800           0
      1453 MEMB     12       OSM      H7G      HAL2     0.900000E-01   1.00800           0
      1454 MEMB     12       OSM      C8F      CTL2    -0.180000       12.0110           0
      1455 MEMB     12       OSM      H8F      HAL2     0.900000E-01   1.00800           0
      1456 MEMB     12       OSM      H8G      HAL2     0.900000E-01   1.00800           0
      1457 MEMB     12       OSM      C9F      CEL1    -0.150000       12.0110           0
      1458 MEMB     12       OSM      H9F      HEL1     0.150000       1.00800           0
      1459 MEMB     12       OSM      C10F     CEL1    -0.150000       12.0110           0
      1460 MEMB     12       OSM      H10F     HEL1     0.150000       1.00800           0
      1461 MEMB     12       OSM      C11F     CTL2    -0.180000       12.0110           0
      1462 MEMB     12       OSM      H11F     HAL2     0.900000E-01   1.00800           0
      1463 MEMB     12       OSM      H11G     HAL2     0.900000E-01   1.00800           0
      1464 MEMB     12       OSM      C12F     CTL2    -0.180000       12.0110           0
      1465 MEMB     12       OSM      H12F     HAL2     0.900000E-01   1.00800           0
      1466 MEMB     12       OSM      H12G     HAL2     0.900000E-01   1.00800           0
      1467 MEMB     12       OSM      C13F     CTL2    -0.180000       12.0110           0
      1468 MEMB     12       OSM      H13F     HAL2     0.900000E-01   1.00800           0
      1469 MEMB     12       OSM      H13G     HAL2     0.900000E-01   1.00800           0
      1470 MEMB     12       OSM      C14F     CTL2    -0.180000       12.0110           0
      1471 MEMB     12       OSM      H14F     HAL2     0.900000E-01   1.00800           0
      1472 MEMB     12       OSM      H14G     HAL2     0.900000E-01   1.00800           0
      1473 MEMB     12       OSM      C15F     CTL2    -0.180000       12.0110           0
      1474 MEMB     12       OSM      H15F     HAL2     0.900000E-01   1.00800           0
      1475 MEMB     12       OSM      H15G     HAL2     0.900000E-01   1.00800           0
      1476 MEMB     12       OSM      C16F     CTL2    -0.180000       12.0110           0
      1477 MEMB     12       OSM      H16F     HAL2     0.900000E-01   1.00800           0
      1478 MEMB     12       OSM      H16G     HAL2     0.900000E-01   1.00800           0
      1479 MEMB     12       OSM      C17F     CTL2    -0.180000       12.0110           0
      1480 MEMB     12       OSM      H17F     HAL2     0.900000E-01   1.00800           0
      1481 MEMB     12       OSM      H17G     HAL2     0.900000E-01   1.00800           0
      1482 MEMB     12       OSM      C18F     CTL3    -0.270000       12.0110           0
      1483 MEMB     12       OSM      H18F     HAL3     0.900000E-01   1.00800           0
      1484 MEMB     12       OSM      H18G     HAL3     0.900000E-01   1.00800           0
      1485 MEMB     12       OSM      H18H     HAL3     0.900000E-01   1.00800           0
      1486 MEMB     13       OSM      N        NTL     -0.600000       14.0070           0
      1487 MEMB     13       OSM      C15      CTL5    -0.350000       12.0110           0
      1488 MEMB     13       OSM      H15A     HL       0.250000       1.00800           0
      1489 MEMB     13       OSM      H15B     HL       0.250000       1.00800           0
      1490 MEMB     13       OSM      H15C     HL       0.250000       1.00800           0
      1491 MEMB     13       OSM      C14      CTL5    -0.350000       12.0110           0
      1492 MEMB     13       OSM      H14A     HL       0.250000       1.00800           0
      1493 MEMB     13       OSM      H14B     HL       0.250000       1.00800           0
      1494 MEMB     13       OSM      H14C     HL       0.250000       1.00800           0
      1495 MEMB     13       OSM      C13      CTL5    -0.350000       12.0110           0
      1496 MEMB     13       OSM      H13A     HL       0.250000       1.00800           0
      1497 MEMB     13       OSM      H13B     HL       0.250000       1.00800           0
      1498 MEMB     13       OSM      H13C     HL       0.250000       1.00800           0
      1499 MEMB     13       OSM      C12      CTL2    -0.100000       12.0110           0
      1500 MEMB     13       OSM      H12A     HL       0.250000       1.00800           0
      1501 MEMB     13       OSM      H12B     HL       0.250000       1.00800           0
      1502 MEMB     13       OSM      C11      CTL2    -0.800000E-01   12.0110           0
      1503 MEMB     13       OSM      H11A     HAL2     0.900000E-01   1.00800           0
      1504 MEMB     13       OSM      H11B     HAL2     0.900000E-01   1.00800           0
      1505 MEMB     13       OSM      P        PL        1.50000       30.9740           0
      1506 MEMB     13       OSM      O13      O2L     -0.780000       15.9994           0
      1507 MEMB     13       OSM      O14      O2L     -0.780000       15.9994           0
      1508 MEMB     13       OSM      O11      OSLP    -0.570000       15.9994           0
      1509 MEMB     13       OSM      O12      OSLP    -0.570000       15.9994           0
      1510 MEMB     13       OSM      C1S      CTL2    -0.800000E-01   12.0110           0
      1511 MEMB     13       OSM      H1S      HAL2     0.900000E-01   1.00800           0
      1512 MEMB     13       OSM      H1T      HAL2     0.900000E-01   1.00800           0
      1513 MEMB     13       OSM      NF       NHL     -0.700000       14.0070           0
      1514 MEMB     13       OSM      HNF      H        0.350000       1.00800           0
      1515 MEMB     13       OSM      C2S      CTL1     0.300000       12.0110           0
      1516 MEMB     13       OSM      H2S      HAL1     0.500000E-01   1.00800           0
      1517 MEMB     13       OSM      C3S      CTO1     0.500000       12.0110           0
      1518 MEMB     13       OSM      H3S      HAL1    -0.110000       1.00800           0
      1519 MEMB     13       OSM      O3       OHL     -0.690000       15.9994           0
      1520 MEMB     13       OSM      HO3      HOL      0.300000       1.00800           0
      1521 MEMB     13       OSM      C4S      CEL3    -0.150000       12.0110           0
      1522 MEMB     13       OSM      H4S      HEL1     0.150000       1.00800           0
      1523 MEMB     13       OSM      C5S      CEL3    -0.150000       12.0110           0
      1524 MEMB     13       OSM      H5S      HEL1     0.150000       1.00800           0
      1525 MEMB     13       OSM      C6S      CTL2    -0.180000       12.0110           0
      1526 MEMB     13       OSM      H6S      HAL2     0.900000E-01   1.00800           0
      1527 MEMB     13       OSM      H6T      HAL2     0.900000E-01   1.00800           0
      1528 MEMB     13       OSM      C7S      CTL2    -0.180000       12.0110           0
      1529 MEMB     13       OSM      H7S      HAL2     0.900000E-01   1.00800           0
      1530 MEMB     13       OSM      H7T      HAL2     0.900000E-01   1.00800           0
      1531 MEMB     13       OSM      C8S      CTL2    -0.180000       12.0110           0
      1532 MEMB     13       OSM      H8S      HAL2     0.900000E-01   1.00800           0
      1533 MEMB     13       OSM      H8T      HAL2     0.900000E-01   1.00800           0
      1534 MEMB     13       OSM      C9S      CTL2    -0.180000       12.0110           0
      1535 MEMB     13       OSM      H9S      HAL2     0.900000E-01   1.00800           0
      1536 MEMB     13       OSM      H9T      HAL2     0.900000E-01   1.00800           0
      1537 MEMB     13       OSM      C10S     CTL2    -0.180000       12.0110           0
      1538 MEMB     13       OSM      H10S     HAL2     0.900000E-01   1.00800           0
      1539 MEMB     13       OSM      H10T     HAL2     0.900000E-01   1.00800           0
      1540 MEMB     13       OSM      C11S     CTL2    -0.180000       12.0110           0
      1541 MEMB     13       OSM      H11S     HAL2     0.900000E-01   1.00800           0
      1542 MEMB     13       OSM      H11T     HAL2     0.900000E-01   1.00800           0
      1543 MEMB     13       OSM      C12S     CTL2    -0.180000       12.0110           0
      1544 MEMB     13       OSM      H12S     HAL2     0.900000E-01   1.00800           0
      1545 MEMB     13       OSM      H12T     HAL2     0.900000E-01   1.00800           0
      1546 MEMB     13       OSM      C13S     CTL2    -0.180000       12.0110           0
      1547 MEMB     13       OSM      H13S     HAL2     0.900000E-01   1.00800           0
      1548 MEMB     13       OSM      H13T     HAL2     0.900000E-01   1.00800           0
      1549 MEMB     13       OSM      C14S     CTL2    -0.180000       12.0110           0
      1550 MEMB     13       OSM      H14S     HAL2     0.900000E-01   1.00800           0
      1551 MEMB     13       OSM      H14T     HAL2     0.900000E-01   1.00800           0
      1552 MEMB     13       OSM      C15S     CTL2    -0.180000       12.0110           0
      1553 MEMB     13       OSM      H15S     HAL2     0.900000E-01   1.00800           0
      1554 MEMB     13       OSM      H15T     HAL2     0.900000E-01   1.00800           0
      1555 MEMB     13       OSM      C16S     CTL2    -0.180000       12.0110           0
      1556 MEMB     13       OSM      H16S     HAL2     0.900000E-01   1.00800           0
      1557 MEMB     13       OSM      H16T     HAL2     0.900000E-01   1.00800           0
      1558 MEMB     13       OSM      C17S     CTL2    -0.180000       12.0110           0
      1559 MEMB     13       OSM      H17S     HAL2     0.900000E-01   1.00800           0
      1560 MEMB     13       OSM      H17T     HAL2     0.900000E-01   1.00800           0
      1561 MEMB     13       OSM      C18S     CTL3    -0.270000       12.0110           0
      1562 MEMB     13       OSM      H18S     HAL3     0.900000E-01   1.00800           0
      1563 MEMB     13       OSM      H18T     HAL3     0.900000E-01   1.00800           0
      1564 MEMB     13       OSM      H18U     HAL3     0.900000E-01   1.00800           0
      1565 MEMB     13       OSM      C1F      C        0.550000       12.0110           0
      1566 MEMB     13       OSM      OF       O       -0.600000       15.9994           0
      1567 MEMB     13       OSM      C2F      CTL2    -0.700000E-01   12.0110           0
      1568 MEMB     13       OSM      H2F      HAL2     0.600000E-01   1.00800           0
      1569 MEMB     13       OSM      H2G      HAL2     0.600000E-01   1.00800           0
      1570 MEMB     13       OSM      C3F      CTL2    -0.180000       12.0110           0
      1571 MEMB     13       OSM      H3F      HAL2     0.900000E-01   1.00800           0
      1572 MEMB     13       OSM      H3G      HAL2     0.900000E-01   1.00800           0
      1573 MEMB     13       OSM      C4F      CTL2    -0.180000       12.0110           0
      1574 MEMB     13       OSM      H4F      HAL2     0.900000E-01   1.00800           0
      1575 MEMB     13       OSM      H4G      HAL2     0.900000E-01   1.00800           0
      1576 MEMB     13       OSM      C5F      CTL2    -0.180000       12.0110           0
      1577 MEMB     13       OSM      H5F      HAL2     0.900000E-01   1.00800           0
      1578 MEMB     13       OSM      H5G      HAL2     0.900000E-01   1.00800           0
      1579 MEMB     13       OSM      C6F      CTL2    -0.180000       12.0110           0
      1580 MEMB     13       OSM      H6F      HAL2     0.900000E-01   1.00800           0
      1581 MEMB     13       OSM      H6G      HAL2     0.900000E-01   1.00800           0
      1582 MEMB     13       OSM      C7F      CTL2    -0.180000       12.0110           0
      1583 MEMB     13       OSM      H7F      HAL2     0.900000E-01   1.00800           0
      1584 MEMB     13       OSM      H7G      HAL2     0.900000E-01   1.00800           0
      1585 MEMB     13       OSM      C8F      CTL2    -0.180000       12.0110           0
      1586 MEMB     13       OSM      H8F      HAL2     0.900000E-01   1.00800           0
      1587 MEMB     13       OSM      H8G      HAL2     0.900000E-01   1.00800           0
      1588 MEMB     13       OSM      C9F      CEL1    -0.150000       12.0110           0
      1589 MEMB     13       OSM      H9F      HEL1     0.150000       1.00800           0
      1590 MEMB     13       OSM      C10F     CEL1    -0.150000       12.0110           0
      1591 MEMB     13       OSM      H10F     HEL1     0.150000       1.00800           0
      1592 MEMB     13       OSM      C11F     CTL2    -0.180000       12.0110           0
      1593 MEMB     13       OSM      H11F     HAL2     0.900000E-01   1.00800           0
      1594 MEMB     13       OSM      H11G     HAL2     0.900000E-01   1.00800           0
      1595 MEMB     13       OSM      C12F     CTL2    -0.180000       12.0110           0
      1596 MEMB     13       OSM      H12F     HAL2     0.900000E-01   1.00800           0
      1597 MEMB     13       OSM      H12G     HAL2     0.900000E-01   1.00800           0
      1598 MEMB     13       OSM      C13F     CTL2    -0.180000       12.0110           0
      1599 MEMB     13       OSM      H13F     HAL2     0.900000E-01   1.00800           0
      1600 MEMB     13       OSM      H13G     HAL2     0.900000E-01   1.00800           0
      1601 MEMB     13       OSM      C14F     CTL2    -0.180000       12.0110           0
      1602 MEMB     13       OSM      H14F     HAL2     0.900000E-01   1.00800           0
      1603 MEMB     13       OSM      H14G     HAL2     0.900000E-01   1.00800           0
      1604 MEMB     13       OSM      C15F     CTL2    -0.180000       12.0110           0
      1605 MEMB     13       OSM      H15F     HAL2     0.900000E-01   1.00800           0
      1606 MEMB     13       OSM      H15G     HAL2     0.900000E-01   1.00800           0
      1607 MEMB     13       OSM      C16F     CTL2    -0.180000       12.0110           0
      1608 MEMB     13       OSM      H16F     HAL2     0.900000E-01   1.00800           0
      1609 MEMB     13       OSM      H16G     HAL2     0.900000E-01   1.00800           0
      1610 MEMB     13       OSM      C17F     CTL2    -0.180000       12.0110           0
      1611 MEMB     13       OSM      H17F     HAL2     0.900000E-01   1.00800           0
      1612 MEMB     13       OSM      H17G     HAL2     0.900000E-01   1.00800           0
      1613 MEMB     13       OSM      C18F     CTL3    -0.270000       12.0110           0
      1614 MEMB     13       OSM      H18F     HAL3     0.900000E-01   1.00800           0
      1615 MEMB     13       OSM      H18G     HAL3     0.900000E-01   1.00800           0
      1616 MEMB     13       OSM      H18H     HAL3     0.900000E-01   1.00800           0
      1617 MEMB     14       SOPE     N        NH3L    -0.300000       14.0070           0
      1618 MEMB     14       SOPE     HN1      HCL      0.330000       1.00800           0
      1619 MEMB     14       SOPE     HN2      HCL      0.330000       1.00800           0
      1620 MEMB     14       SOPE     HN3      HCL      0.330000       1.00800           0
      1621 MEMB     14       SOPE     C12      CTL2     0.130000       12.0110           0
      1622 MEMB     14       SOPE     H12A     HAL2     0.900000E-01   1.00800           0
      1623 MEMB     14       SOPE     H12B     HAL2     0.900000E-01   1.00800           0
      1624 MEMB     14       SOPE     C11      CTL2    -0.800000E-01   12.0110           0
      1625 MEMB     14       SOPE     H11A     HAL2     0.900000E-01   1.00800           0
      1626 MEMB     14       SOPE     H11B     HAL2     0.900000E-01   1.00800           0
      1627 MEMB     14       SOPE     P        PL        1.50000       30.9740           0
      1628 MEMB     14       SOPE     O13      O2L     -0.780000       15.9994           0
      1629 MEMB     14       SOPE     O14      O2L     -0.780000       15.9994           0
      1630 MEMB     14       SOPE     O12      OSLP    -0.570000       15.9994           0
      1631 MEMB     14       SOPE     O11      OSLP    -0.570000       15.9994           0
      1632 MEMB     14       SOPE     C1       CTL2    -0.800000E-01   12.0110           0
      1633 MEMB     14       SOPE     HA       HAL2     0.900000E-01   1.00800           0
      1634 MEMB     14       SOPE     HB       HAL2     0.900000E-01   1.00800           0
      1635 MEMB     14       SOPE     C2       CTL1     0.170000       12.0110           0
      1636 MEMB     14       SOPE     HS       HAL1     0.900000E-01   1.00800           0
      1637 MEMB     14       SOPE     O21      OSL     -0.490000       15.9994           0
      1638 MEMB     14       SOPE     C21      CL       0.900000       12.0110           0
      1639 MEMB     14       SOPE     O22      OBL     -0.630000       15.9994           0
      1640 MEMB     14       SOPE     C22      CTL2    -0.220000       12.0110           0
      1641 MEMB     14       SOPE     H2R      HAL2     0.900000E-01   1.00800           0
      1642 MEMB     14       SOPE     H2S      HAL2     0.900000E-01   1.00800           0
      1643 MEMB     14       SOPE     C3       CTL2     0.800000E-01   12.0110           0
      1644 MEMB     14       SOPE     HX       HAL2     0.900000E-01   1.00800           0
      1645 MEMB     14       SOPE     HY       HAL2     0.900000E-01   1.00800           0
      1646 MEMB     14       SOPE     O31      OSL     -0.490000       15.9994           0
      1647 MEMB     14       SOPE     C31      CL       0.900000       12.0110           0
      1648 MEMB     14       SOPE     O32      OBL     -0.630000       15.9994           0
      1649 MEMB     14       SOPE     C32      CTL2    -0.220000       12.0110           0
      1650 MEMB     14       SOPE     H2X      HAL2     0.900000E-01   1.00800           0
      1651 MEMB     14       SOPE     H2Y      HAL2     0.900000E-01   1.00800           0
      1652 MEMB     14       SOPE     C23      CTL2    -0.180000       12.0110           0
      1653 MEMB     14       SOPE     H3R      HAL2     0.900000E-01   1.00800           0
      1654 MEMB     14       SOPE     H3S      HAL2     0.900000E-01   1.00800           0
      1655 MEMB     14       SOPE     C24      CTL2    -0.180000       12.0110           0
      1656 MEMB     14       SOPE     H4R      HAL2     0.900000E-01   1.00800           0
      1657 MEMB     14       SOPE     H4S      HAL2     0.900000E-01   1.00800           0
      1658 MEMB     14       SOPE     C25      CTL2    -0.180000       12.0110           0
      1659 MEMB     14       SOPE     H5R      HAL2     0.900000E-01   1.00800           0
      1660 MEMB     14       SOPE     H5S      HAL2     0.900000E-01   1.00800           0
      1661 MEMB     14       SOPE     C26      CTL2    -0.180000       12.0110           0
      1662 MEMB     14       SOPE     H6R      HAL2     0.900000E-01   1.00800           0
      1663 MEMB     14       SOPE     H6S      HAL2     0.900000E-01   1.00800           0
      1664 MEMB     14       SOPE     C27      CTL2    -0.180000       12.0110           0
      1665 MEMB     14       SOPE     H7R      HAL2     0.900000E-01   1.00800           0
      1666 MEMB     14       SOPE     H7S      HAL2     0.900000E-01   1.00800           0
      1667 MEMB     14       SOPE     C28      CTL2    -0.180000       12.0110           0
      1668 MEMB     14       SOPE     H8R      HAL2     0.900000E-01   1.00800           0
      1669 MEMB     14       SOPE     H8S      HAL2     0.900000E-01   1.00800           0
      1670 MEMB     14       SOPE     C29      CEL1    -0.150000       12.0110           0
      1671 MEMB     14       SOPE     H91      HEL1     0.150000       1.00800           0
      1672 MEMB     14       SOPE     C210     CEL1    -0.150000       12.0110           0
      1673 MEMB     14       SOPE     H101     HEL1     0.150000       1.00800           0
      1674 MEMB     14       SOPE     C211     CTL2    -0.180000       12.0110           0
      1675 MEMB     14       SOPE     H11R     HAL2     0.900000E-01   1.00800           0
      1676 MEMB     14       SOPE     H11S     HAL2     0.900000E-01   1.00800           0
      1677 MEMB     14       SOPE     C212     CTL2    -0.180000       12.0110           0
      1678 MEMB     14       SOPE     H12R     HAL2     0.900000E-01   1.00800           0
      1679 MEMB     14       SOPE     H12S     HAL2     0.900000E-01   1.00800           0
      1680 MEMB     14       SOPE     C213     CTL2    -0.180000       12.0110           0
      1681 MEMB     14       SOPE     H13R     HAL2     0.900000E-01   1.00800           0
      1682 MEMB     14       SOPE     H13S     HAL2     0.900000E-01   1.00800           0
      1683 MEMB     14       SOPE     C214     CTL2    -0.180000       12.0110           0
      1684 MEMB     14       SOPE     H14R     HAL2     0.900000E-01   1.00800           0
      1685 MEMB     14       SOPE     H14S     HAL2     0.900000E-01   1.00800           0
      1686 MEMB     14       SOPE     C215     CTL2    -0.180000       12.0110           0
      1687 MEMB     14       SOPE     H15R     HAL2     0.900000E-01   1.00800           0
      1688 MEMB     14       SOPE     H15S     HAL2     0.900000E-01   1.00800           0
      1689 MEMB     14       SOPE     C216     CTL2    -0.180000       12.0110           0
      1690 MEMB     14       SOPE     H16R     HAL2     0.900000E-01   1.00800           0
      1691 MEMB     14       SOPE     H16S     HAL2     0.900000E-01   1.00800           0
      1692 MEMB     14       SOPE     C217     CTL2    -0.180000       12.0110           0
      1693 MEMB     14       SOPE     H17R     HAL2     0.900000E-01   1.00800           0
      1694 MEMB     14       SOPE     H17S     HAL2     0.900000E-01   1.00800           0
      1695 MEMB     14       SOPE     C218     CTL3    -0.270000       12.0110           0
      1696 MEMB     14       SOPE     H18R     HAL3     0.900000E-01   1.00800           0
      1697 MEMB     14       SOPE     H18S     HAL3     0.900000E-01   1.00800           0
      1698 MEMB     14       SOPE     H18T     HAL3     0.900000E-01   1.00800           0
      1699 MEMB     14       SOPE     C33      CTL2    -0.180000       12.0110           0
      1700 MEMB     14       SOPE     H3X      HAL2     0.900000E-01   1.00800           0
      1701 MEMB     14       SOPE     H3Y      HAL2     0.900000E-01   1.00800           0
      1702 MEMB     14       SOPE     C34      CTL2    -0.180000       12.0110           0
      1703 MEMB     14       SOPE     H4X      HAL2     0.900000E-01   1.00800           0
      1704 MEMB     14       SOPE     H4Y      HAL2     0.900000E-01   1.00800           0
      1705 MEMB     14       SOPE     C35      CTL2    -0.180000       12.0110           0
      1706 MEMB     14       SOPE     H5X      HAL2     0.900000E-01   1.00800           0
      1707 MEMB     14       SOPE     H5Y      HAL2     0.900000E-01   1.00800           0
      1708 MEMB     14       SOPE     C36      CTL2    -0.180000       12.0110           0
      1709 MEMB     14       SOPE     H6X      HAL2     0.900000E-01   1.00800           0
      1710 MEMB     14       SOPE     H6Y      HAL2     0.900000E-01   1.00800           0
      1711 MEMB     14       SOPE     C37      CTL2    -0.180000       12.0110           0
      1712 MEMB     14       SOPE     H7X      HAL2     0.900000E-01   1.00800           0
      1713 MEMB     14       SOPE     H7Y      HAL2     0.900000E-01   1.00800           0
      1714 MEMB     14       SOPE     C38      CTL2    -0.180000       12.0110           0
      1715 MEMB     14       SOPE     H8X      HAL2     0.900000E-01   1.00800           0
      1716 MEMB     14       SOPE     H8Y      HAL2     0.900000E-01   1.00800           0
      1717 MEMB     14       SOPE     C39      CTL2    -0.180000       12.0110           0
      1718 MEMB     14       SOPE     H9X      HAL2     0.900000E-01   1.00800           0
      1719 MEMB     14       SOPE     H9Y      HAL2     0.900000E-01   1.00800           0
      1720 MEMB     14       SOPE     C310     CTL2    -0.180000       12.0110           0
      1721 MEMB     14       SOPE     H10X     HAL2     0.900000E-01   1.00800           0
      1722 MEMB     14       SOPE     H10Y     HAL2     0.900000E-01   1.00800           0
      1723 MEMB     14       SOPE     C311     CTL2    -0.180000       12.0110           0
      1724 MEMB     14       SOPE     H11X     HAL2     0.900000E-01   1.00800           0
      1725 MEMB     14       SOPE     H11Y     HAL2     0.900000E-01   1.00800           0
      1726 MEMB     14       SOPE     C312     CTL2    -0.180000       12.0110           0
      1727 MEMB     14       SOPE     H12X     HAL2     0.900000E-01   1.00800           0
      1728 MEMB     14       SOPE     H12Y     HAL2     0.900000E-01   1.00800           0
      1729 MEMB     14       SOPE     C313     CTL2    -0.180000       12.0110           0
      1730 MEMB     14       SOPE     H13X     HAL2     0.900000E-01   1.00800           0
      1731 MEMB     14       SOPE     H13Y     HAL2     0.900000E-01   1.00800           0
      1732 MEMB     14       SOPE     C314     CTL2    -0.180000       12.0110           0
      1733 MEMB     14       SOPE     H14X     HAL2     0.900000E-01   1.00800           0
      1734 MEMB     14       SOPE     H14Y     HAL2     0.900000E-01   1.00800           0
      1735 MEMB     14       SOPE     C315     CTL2    -0.180000       12.0110           0
      1736 MEMB     14       SOPE     H15X     HAL2     0.900000E-01   1.00800           0
      1737 MEMB     14       SOPE     H15Y     HAL2     0.900000E-01   1.00800           0
      1738 MEMB     14       SOPE     C316     CTL2    -0.180000       12.0110           0
      1739 MEMB     14       SOPE     H16X     HAL2     0.900000E-01   1.00800           0
      1740 MEMB     14       SOPE     H16Y     HAL2     0.900000E-01   1.00800           0
      1741 MEMB     14       SOPE     C317     CTL2    -0.180000       12.0110           0
      1742 MEMB     14       SOPE     H17X     HAL2     0.900000E-01   1.00800           0
      1743 MEMB     14       SOPE     H17Y     HAL2     0.900000E-01   1.00800           0
      1744 MEMB     14       SOPE     C318     CTL3    -0.270000       12.0110           0
      1745 MEMB     14       SOPE     H18X     HAL3     0.900000E-01   1.00800           0
      1746 MEMB     14       SOPE     H18Y     HAL3     0.900000E-01   1.00800           0
      1747 MEMB     14       SOPE     H18Z     HAL3     0.900000E-01   1.00800           0
      1748 MEMB     15       SAPS     N        NH3L    -0.300000       14.0070           0
      1749 MEMB     15       SAPS     HN1      HCL      0.330000       1.00800           0
      1750 MEMB     15       SAPS     HN2      HCL      0.330000       1.00800           0
      1751 MEMB     15       SAPS     HN3      HCL      0.330000       1.00800           0
      1752 MEMB     15       SAPS     C12      CTL1     0.210000       12.0110           0
      1753 MEMB     15       SAPS     H12A     HBL      0.100000       1.00800           0
      1754 MEMB     15       SAPS     C13      CCL      0.340000       12.0110           0
      1755 MEMB     15       SAPS     O13A     OCL     -0.670000       15.9994           0
      1756 MEMB     15       SAPS     O13B     OCL     -0.670000       15.9994           0
      1757 MEMB     15       SAPS     C11      CTL2    -0.800000E-01   12.0110           0
      1758 MEMB     15       SAPS     H11A     HAL2     0.900000E-01   1.00800           0
      1759 MEMB     15       SAPS     H11B     HAL2     0.900000E-01   1.00800           0
      1760 MEMB     15       SAPS     P        PL        1.50000       30.9740           0
      1761 MEMB     15       SAPS     O13      O2L     -0.780000       15.9994           0
      1762 MEMB     15       SAPS     O14      O2L     -0.780000       15.9994           0
      1763 MEMB     15       SAPS     O12      OSLP    -0.570000       15.9994           0
      1764 MEMB     15       SAPS     O11      OSLP    -0.570000       15.9994           0
      1765 MEMB     15       SAPS     C1       CTL2    -0.800000E-01   12.0110           0
      1766 MEMB     15       SAPS     HA       HAL2     0.900000E-01   1.00800           0
      1767 MEMB     15       SAPS     HB       HAL2     0.900000E-01   1.00800           0
      1768 MEMB     15       SAPS     C2       CTL1     0.170000       12.0110           0
      1769 MEMB     15       SAPS     HS       HAL1     0.900000E-01   1.00800           0
      1770 MEMB     15       SAPS     O21      OSL     -0.490000       15.9994           0
      1771 MEMB     15       SAPS     C21      CL       0.900000       12.0110           0
      1772 MEMB     15       SAPS     O22      OBL     -0.630000       15.9994           0
      1773 MEMB     15       SAPS     C22      CTL2    -0.220000       12.0110           0
      1774 MEMB     15       SAPS     H2R      HAL2     0.900000E-01   1.00800           0
      1775 MEMB     15       SAPS     H2S      HAL2     0.900000E-01   1.00800           0
      1776 MEMB     15       SAPS     C3       CTL2     0.800000E-01   12.0110           0
      1777 MEMB     15       SAPS     HX       HAL2     0.900000E-01   1.00800           0
      1778 MEMB     15       SAPS     HY       HAL2     0.900000E-01   1.00800           0
      1779 MEMB     15       SAPS     O31      OSL     -0.490000       15.9994           0
      1780 MEMB     15       SAPS     C31      CL       0.900000       12.0110           0
      1781 MEMB     15       SAPS     O32      OBL     -0.630000       15.9994           0
      1782 MEMB     15       SAPS     C32      CTL2    -0.220000       12.0110           0
      1783 MEMB     15       SAPS     H2X      HAL2     0.900000E-01   1.00800           0
      1784 MEMB     15       SAPS     H2Y      HAL2     0.900000E-01   1.00800           0
      1785 MEMB     15       SAPS     C23      CTL2    -0.180000       12.0110           0
      1786 MEMB     15       SAPS     H3R      HAL2     0.900000E-01   1.00800           0
      1787 MEMB     15       SAPS     H3S      HAL2     0.900000E-01   1.00800           0
      1788 MEMB     15       SAPS     C24      CTL2    -0.180000       12.0110           0
      1789 MEMB     15       SAPS     H4R      HAL2     0.900000E-01   1.00800           0
      1790 MEMB     15       SAPS     H4S      HAL2     0.900000E-01   1.00800           0
      1791 MEMB     15       SAPS     C25      CEL1    -0.150000       12.0110           0
      1792 MEMB     15       SAPS     H5R      HEL1     0.150000       1.00800           0
      1793 MEMB     15       SAPS     C26      CEL1    -0.150000       12.0110           0
      1794 MEMB     15       SAPS     H6R      HEL1     0.150000       1.00800           0
      1795 MEMB     15       SAPS     C27      CTL2    -0.180000       12.0110           0
      1796 MEMB     15       SAPS     H7R      HAL2     0.900000E-01   1.00800           0
      1797 MEMB     15       SAPS     H7S      HAL2     0.900000E-01   1.00800           0
      1798 MEMB     15       SAPS     C28      CEL1    -0.150000       12.0110           0
      1799 MEMB     15       SAPS     H8R      HEL1     0.150000       1.00800           0
      1800 MEMB     15       SAPS     C29      CEL1    -0.150000       12.0110           0
      1801 MEMB     15       SAPS     H9R      HEL1     0.150000       1.00800           0
      1802 MEMB     15       SAPS     C210     CTL2    -0.180000       12.0110           0
      1803 MEMB     15       SAPS     H10R     HAL2     0.900000E-01   1.00800           0
      1804 MEMB     15       SAPS     H10S     HAL2     0.900000E-01   1.00800           0
      1805 MEMB     15       SAPS     C211     CEL1    -0.150000       12.0110           0
      1806 MEMB     15       SAPS     H11R     HEL1     0.150000       1.00800           0
      1807 MEMB     15       SAPS     C212     CEL1    -0.150000       12.0110           0
      1808 MEMB     15       SAPS     H12R     HEL1     0.150000       1.00800           0
      1809 MEMB     15       SAPS     C213     CTL2    -0.180000       12.0110           0
      1810 MEMB     15       SAPS     H13R     HAL2     0.900000E-01   1.00800           0
      1811 MEMB     15       SAPS     H13S     HAL2     0.900000E-01   1.00800           0
      1812 MEMB     15       SAPS     C214     CEL1    -0.150000       12.0110           0
      1813 MEMB     15       SAPS     H14R     HEL1     0.150000       1.00800           0
      1814 MEMB     15       SAPS     C215     CEL1    -0.150000       12.0110           0
      1815 MEMB     15       SAPS     H15R     HEL1     0.150000       1.00800           0
      1816 MEMB     15       SAPS     C216     CTL2    -0.180000       12.0110           0
      1817 MEMB     15       SAPS     H16R     HAL2     0.900000E-01   1.00800           0
      1818 MEMB     15       SAPS     H16S     HAL2     0.900000E-01   1.00800           0
      1819 MEMB     15       SAPS     C217     CTL2    -0.180000       12.0110           0
      1820 MEMB     15       SAPS     H17R     HAL2     0.900000E-01   1.00800           0
      1821 MEMB     15       SAPS     H17S     HAL2     0.900000E-01   1.00800           0
      1822 MEMB     15       SAPS     C218     CTL2    -0.180000       12.0110           0
      1823 MEMB     15       SAPS     H18R     HAL2     0.900000E-01   1.00800           0
      1824 MEMB     15       SAPS     H18S     HAL2     0.900000E-01   1.00800           0
      1825 MEMB     15       SAPS     C219     CTL2    -0.180000       12.0110           0
      1826 MEMB     15       SAPS     H19R     HAL2     0.900000E-01   1.00800           0
      1827 MEMB     15       SAPS     H19S     HAL2     0.900000E-01   1.00800           0
      1828 MEMB     15       SAPS     C220     CTL3    -0.270000       12.0110           0
      1829 MEMB     15       SAPS     H20R     HAL3     0.900000E-01   1.00800           0
      1830 MEMB     15       SAPS     H20S     HAL3     0.900000E-01   1.00800           0
      1831 MEMB     15       SAPS     H20T     HAL3     0.900000E-01   1.00800           0
      1832 MEMB     15       SAPS     C33      CTL2    -0.180000       12.0110           0
      1833 MEMB     15       SAPS     H3X      HAL2     0.900000E-01   1.00800           0
      1834 MEMB     15       SAPS     H3Y      HAL2     0.900000E-01   1.00800           0
      1835 MEMB     15       SAPS     C34      CTL2    -0.180000       12.0110           0
      1836 MEMB     15       SAPS     H4X      HAL2     0.900000E-01   1.00800           0
      1837 MEMB     15       SAPS     H4Y      HAL2     0.900000E-01   1.00800           0
      1838 MEMB     15       SAPS     C35      CTL2    -0.180000       12.0110           0
      1839 MEMB     15       SAPS     H5X      HAL2     0.900000E-01   1.00800           0
      1840 MEMB     15       SAPS     H5Y      HAL2     0.900000E-01   1.00800           0
      1841 MEMB     15       SAPS     C36      CTL2    -0.180000       12.0110           0
      1842 MEMB     15       SAPS     H6X      HAL2     0.900000E-01   1.00800           0
      1843 MEMB     15       SAPS     H6Y      HAL2     0.900000E-01   1.00800           0
      1844 MEMB     15       SAPS     C37      CTL2    -0.180000       12.0110           0
      1845 MEMB     15       SAPS     H7X      HAL2     0.900000E-01   1.00800           0
      1846 MEMB     15       SAPS     H7Y      HAL2     0.900000E-01   1.00800           0
      1847 MEMB     15       SAPS     C38      CTL2    -0.180000       12.0110           0
      1848 MEMB     15       SAPS     H8X      HAL2     0.900000E-01   1.00800           0
      1849 MEMB     15       SAPS     H8Y      HAL2     0.900000E-01   1.00800           0
      1850 MEMB     15       SAPS     C39      CTL2    -0.180000       12.0110           0
      1851 MEMB     15       SAPS     H9X      HAL2     0.900000E-01   1.00800           0
      1852 MEMB     15       SAPS     H9Y      HAL2     0.900000E-01   1.00800           0
      1853 MEMB     15       SAPS     C310     CTL2    -0.180000       12.0110           0
      1854 MEMB     15       SAPS     H10X     HAL2     0.900000E-01   1.00800           0
      1855 MEMB     15       SAPS     H10Y     HAL2     0.900000E-01   1.00800           0
      1856 MEMB     15       SAPS     C311     CTL2    -0.180000       12.0110           0
      1857 MEMB     15       SAPS     H11X     HAL2     0.900000E-01   1.00800           0
      1858 MEMB     15       SAPS     H11Y     HAL2     0.900000E-01   1.00800           0
      1859 MEMB     15       SAPS     C312     CTL2    -0.180000       12.0110           0
      1860 MEMB     15       SAPS     H12X     HAL2     0.900000E-01   1.00800           0
      1861 MEMB     15       SAPS     H12Y     HAL2     0.900000E-01   1.00800           0
      1862 MEMB     15       SAPS     C313     CTL2    -0.180000       12.0110           0
      1863 MEMB     15       SAPS     H13X     HAL2     0.900000E-01   1.00800           0
      1864 MEMB     15       SAPS     H13Y     HAL2     0.900000E-01   1.00800           0
      1865 MEMB     15       SAPS     C314     CTL2    -0.180000       12.0110           0
      1866 MEMB     15       SAPS     H14X     HAL2     0.900000E-01   1.00800           0
      1867 MEMB     15       SAPS     H14Y     HAL2     0.900000E-01   1.00800           0
      1868 MEMB     15       SAPS     C315     CTL2    -0.180000       12.0110           0
      1869 MEMB     15       SAPS     H15X     HAL2     0.900000E-01   1.00800           0
      1870 MEMB     15       SAPS     H15Y     HAL2     0.900000E-01   1.00800           0
      1871 MEMB     15       SAPS     C316     CTL2    -0.180000       12.0110           0
      1872 MEMB     15       SAPS     H16X     HAL2     0.900000E-01   1.00800           0
      1873 MEMB     15       SAPS     H16Y     HAL2     0.900000E-01   1.00800           0
      1874 MEMB     15       SAPS     C317     CTL2    -0.180000       12.0110           0
      1875 MEMB     15       SAPS     H17X     HAL2     0.900000E-01   1.00800           0
      1876 MEMB     15       SAPS     H17Y     HAL2     0.900000E-01   1.00800           0
      1877 MEMB     15       SAPS     C318     CTL3    -0.270000       12.0110           0
      1878 MEMB     15       SAPS     H18X     HAL3     0.900000E-01   1.00800           0
      1879 MEMB     15       SAPS     H18Y     HAL3     0.900000E-01   1.00800           0
      1880 MEMB     15       SAPS     H18Z     HAL3     0.900000E-01   1.00800           0
      1881 MEMB     16       SAPC     N        NTL     -0.600000       14.0070           0
      1882 MEMB     16       SAPC     C12      CTL2    -0.100000       12.0110           0
      1883 MEMB     16       SAPC     H12A     HL       0.250000       1.00800           0
      1884 MEMB     16       SAPC     H12B     HL       0.250000       1.00800           0
      1885 MEMB     16       SAPC     C13      CTL5    -0.350000       12.0110           0
      1886 MEMB     16       SAPC     H13A     HL       0.250000       1.00800           0
      1887 MEMB     16       SAPC     H13B     HL       0.250000       1.00800           0
      1888 MEMB     16       SAPC     H13C     HL       0.250000       1.00800           0
      1889 MEMB     16       SAPC     C14      CTL5    -0.350000       12.0110           0
      1890 MEMB     16       SAPC     H14A     HL       0.250000       1.00800           0
      1891 MEMB     16       SAPC     H14B     HL       0.250000       1.00800           0
      1892 MEMB     16       SAPC     H14C     HL       0.250000       1.00800           0
      1893 MEMB     16       SAPC     C15      CTL5    -0.350000       12.0110           0
      1894 MEMB     16       SAPC     H15A     HL       0.250000       1.00800           0
      1895 MEMB     16       SAPC     H15B     HL       0.250000       1.00800           0
      1896 MEMB     16       SAPC     H15C     HL       0.250000       1.00800           0
      1897 MEMB     16       SAPC     C11      CTL2    -0.800000E-01   12.0110           0
      1898 MEMB     16       SAPC     H11A     HAL2     0.900000E-01   1.00800           0
      1899 MEMB     16       SAPC     H11B     HAL2     0.900000E-01   1.00800           0
      1900 MEMB     16       SAPC     P        PL        1.50000       30.9740           0
      1901 MEMB     16       SAPC     O13      O2L     -0.780000       15.9994           0
      1902 MEMB     16       SAPC     O14      O2L     -0.780000       15.9994           0
      1903 MEMB     16       SAPC     O12      OSLP    -0.570000       15.9994           0
      1904 MEMB     16       SAPC     O11      OSLP    -0.570000       15.9994           0
      1905 MEMB     16       SAPC     C1       CTL2    -0.800000E-01   12.0110           0
      1906 MEMB     16       SAPC     HA       HAL2     0.900000E-01   1.00800           0
      1907 MEMB     16       SAPC     HB       HAL2     0.900000E-01   1.00800           0
      1908 MEMB     16       SAPC     C2       CTL1     0.170000       12.0110           0
      1909 MEMB     16       SAPC     HS       HAL1     0.900000E-01   1.00800           0
      1910 MEMB     16       SAPC     O21      OSL     -0.490000       15.9994           0
      1911 MEMB     16       SAPC     C21      CL       0.900000       12.0110           0
      1912 MEMB     16       SAPC     O22      OBL     -0.630000       15.9994           0
      1913 MEMB     16       SAPC     C22      CTL2    -0.220000       12.0110           0
      1914 MEMB     16       SAPC     H2R      HAL2     0.900000E-01   1.00800           0
      1915 MEMB     16       SAPC     H2S      HAL2     0.900000E-01   1.00800           0
      1916 MEMB     16       SAPC     C3       CTL2     0.800000E-01   12.0110           0
      1917 MEMB     16       SAPC     HX       HAL2     0.900000E-01   1.00800           0
      1918 MEMB     16       SAPC     HY       HAL2     0.900000E-01   1.00800           0
      1919 MEMB     16       SAPC     O31      OSL     -0.490000       15.9994           0
      1920 MEMB     16       SAPC     C31      CL       0.900000       12.0110           0
      1921 MEMB     16       SAPC     O32      OBL     -0.630000       15.9994           0
      1922 MEMB     16       SAPC     C32      CTL2    -0.220000       12.0110           0
      1923 MEMB     16       SAPC     H2X      HAL2     0.900000E-01   1.00800           0
      1924 MEMB     16       SAPC     H2Y      HAL2     0.900000E-01   1.00800           0
      1925 MEMB     16       SAPC     C23      CTL2    -0.180000       12.0110           0
      1926 MEMB     16       SAPC     H3R      HAL2     0.900000E-01   1.00800           0
      1927 MEMB     16       SAPC     H3S      HAL2     0.900000E-01   1.00800           0
      1928 MEMB     16       SAPC     C24      CTL2    -0.180000       12.0110           0
      1929 MEMB     16       SAPC     H4R      HAL2     0.900000E-01   1.00800           0
      1930 MEMB     16       SAPC     H4S      HAL2     0.900000E-01   1.00800           0
      1931 MEMB     16       SAPC     C25      CEL1    -0.150000       12.0110           0
      1932 MEMB     16       SAPC     H5R      HEL1     0.150000       1.00800           0
      1933 MEMB     16       SAPC     C26      CEL1    -0.150000       12.0110           0
      1934 MEMB     16       SAPC     H6R      HEL1     0.150000       1.00800           0
      1935 MEMB     16       SAPC     C27      CTL2    -0.180000       12.0110           0
      1936 MEMB     16       SAPC     H7R      HAL2     0.900000E-01   1.00800           0
      1937 MEMB     16       SAPC     H7S      HAL2     0.900000E-01   1.00800           0
      1938 MEMB     16       SAPC     C28      CEL1    -0.150000       12.0110           0
      1939 MEMB     16       SAPC     H8R      HEL1     0.150000       1.00800           0
      1940 MEMB     16       SAPC     C29      CEL1    -0.150000       12.0110           0
      1941 MEMB     16       SAPC     H9R      HEL1     0.150000       1.00800           0
      1942 MEMB     16       SAPC     C210     CTL2    -0.180000       12.0110           0
      1943 MEMB     16       SAPC     H10R     HAL2     0.900000E-01   1.00800           0
      1944 MEMB     16       SAPC     H10S     HAL2     0.900000E-01   1.00800           0
      1945 MEMB     16       SAPC     C211     CEL1    -0.150000       12.0110           0
      1946 MEMB     16       SAPC     H11R     HEL1     0.150000       1.00800           0
      1947 MEMB     16       SAPC     C212     CEL1    -0.150000       12.0110           0
      1948 MEMB     16       SAPC     H12R     HEL1     0.150000       1.00800           0
      1949 MEMB     16       SAPC     C213     CTL2    -0.180000       12.0110           0
      1950 MEMB     16       SAPC     H13R     HAL2     0.900000E-01   1.00800           0
      1951 MEMB     16       SAPC     H13S     HAL2     0.900000E-01   1.00800           0
      1952 MEMB     16       SAPC     C214     CEL1    -0.150000       12.0110           0
      1953 MEMB     16       SAPC     H14R     HEL1     0.150000       1.00800           0
      1954 MEMB     16       SAPC     C215     CEL1    -0.150000       12.0110           0
      1955 MEMB     16       SAPC     H15R     HEL1     0.150000       1.00800           0
      1956 MEMB     16       SAPC     C216     CTL2    -0.180000       12.0110           0
      1957 MEMB     16       SAPC     H16R     HAL2     0.900000E-01   1.00800           0
      1958 MEMB     16       SAPC     H16S     HAL2     0.900000E-01   1.00800           0
      1959 MEMB     16       SAPC     C217     CTL2    -0.180000       12.0110           0
      1960 MEMB     16       SAPC     H17R     HAL2     0.900000E-01   1.00800           0
      1961 MEMB     16       SAPC     H17S     HAL2     0.900000E-01   1.00800           0
      1962 MEMB     16       SAPC     C218     CTL2    -0.270000       12.0110           0
      1963 MEMB     16       SAPC     H18R     HAL2     0.900000E-01   1.00800           0
      1964 MEMB     16       SAPC     H18S     HAL2     0.900000E-01   1.00800           0
      1965 MEMB     16       SAPC     C219     CTL2    -0.180000       12.0110           0
      1966 MEMB     16       SAPC     H19R     HAL2     0.900000E-01   1.00800           0
      1967 MEMB     16       SAPC     H19S     HAL2     0.900000E-01   1.00800           0
      1968 MEMB     16       SAPC     C220     CTL3    -0.180000       12.0110           0
      1969 MEMB     16       SAPC     H20R     HAL3     0.900000E-01   1.00800           0
      1970 MEMB     16       SAPC     H20S     HAL3     0.900000E-01   1.00800           0
      1971 MEMB     16       SAPC     H20T     HAL3     0.900000E-01   1.00800           0
      1972 MEMB     16       SAPC     C33      CTL2    -0.180000       12.0110           0
      1973 MEMB     16       SAPC     H3X      HAL2     0.900000E-01   1.00800           0
      1974 MEMB     16       SAPC     H3Y      HAL2     0.900000E-01   1.00800           0
      1975 MEMB     16       SAPC     C34      CTL2    -0.180000       12.0110           0
      1976 MEMB     16       SAPC     H4X      HAL2     0.900000E-01   1.00800           0
      1977 MEMB     16       SAPC     H4Y      HAL2     0.900000E-01   1.00800           0
      1978 MEMB     16       SAPC     C35      CTL2    -0.180000       12.0110           0
      1979 MEMB     16       SAPC     H5X      HAL2     0.900000E-01   1.00800           0
      1980 MEMB     16       SAPC     H5Y      HAL2     0.900000E-01   1.00800           0
      1981 MEMB     16       SAPC     C36      CTL2    -0.180000       12.0110           0
      1982 MEMB     16       SAPC     H6X      HAL2     0.900000E-01   1.00800           0
      1983 MEMB     16       SAPC     H6Y      HAL2     0.900000E-01   1.00800           0
      1984 MEMB     16       SAPC     C37      CTL2    -0.180000       12.0110           0
      1985 MEMB     16       SAPC     H7X      HAL2     0.900000E-01   1.00800           0
      1986 MEMB     16       SAPC     H7Y      HAL2     0.900000E-01   1.00800           0
      1987 MEMB     16       SAPC     C38      CTL2    -0.180000       12.0110           0
      1988 MEMB     16       SAPC     H8X      HAL2     0.900000E-01   1.00800           0
      1989 MEMB     16       SAPC     H8Y      HAL2     0.900000E-01   1.00800           0
      1990 MEMB     16       SAPC     C39      CTL2    -0.180000       12.0110           0
      1991 MEMB     16       SAPC     H9X      HAL2     0.900000E-01   1.00800           0
      1992 MEMB     16       SAPC     H9Y      HAL2     0.900000E-01   1.00800           0
      1993 MEMB     16       SAPC     C310     CTL2    -0.180000       12.0110           0
      1994 MEMB     16       SAPC     H10X     HAL2     0.900000E-01   1.00800           0
      1995 MEMB     16       SAPC     H10Y     HAL2     0.900000E-01   1.00800           0
      1996 MEMB     16       SAPC     C311     CTL2    -0.180000       12.0110           0
      1997 MEMB     16       SAPC     H11X     HAL2     0.900000E-01   1.00800           0
      1998 MEMB     16       SAPC     H11Y     HAL2     0.900000E-01   1.00800           0
      1999 MEMB     16       SAPC     C312     CTL2    -0.180000       12.0110           0
      2000 MEMB     16       SAPC     H12X     HAL2     0.900000E-01   1.00800           0
      2001 MEMB     16       SAPC     H12Y     HAL2     0.900000E-01   1.00800           0
      2002 MEMB     16       SAPC     C313     CTL2    -0.180000       12.0110           0
      2003 MEMB     16       SAPC     H13X     HAL2     0.900000E-01   1.00800           0
      2004 MEMB     16       SAPC     H13Y     HAL2     0.900000E-01   1.00800           0
      2005 MEMB     16       SAPC     C314     CTL2    -0.180000       12.0110           0
      2006 MEMB     16       SAPC     H14X     HAL2     0.900000E-01   1.00800           0
      2007 MEMB     16       SAPC     H14Y     HAL2     0.900000E-01   1.00800           0
      2008 MEMB     16       SAPC     C315     CTL2    -0.180000       12.0110           0
      2009 MEMB     16       SAPC     H15X     HAL2     0.900000E-01   1.00800           0
      2010 MEMB     16       SAPC     H15Y     HAL2     0.900000E-01   1.00800           0
      2011 MEMB     16       SAPC     C316     CTL2    -0.180000       12.0110           0
      2012 MEMB     16       SAPC     H16X     HAL2     0.900000E-01   1.00800           0
      2013 MEMB     16       SAPC     H16Y     HAL2     0.900000E-01   1.00800           0
      2014 MEMB     16       SAPC     C317     CTL2    -0.180000       12.0110           0
      2015 MEMB     16       SAPC     H17X     HAL2     0.900000E-01   1.00800           0
      2016 MEMB     16       SAPC     H17Y     HAL2     0.900000E-01   1.00800           0
      2017 MEMB     16       SAPC     C318     CTL3    -0.270000       12.0110           0
      2018 MEMB     16       SAPC     H18X     HAL3     0.900000E-01   1.00800           0
      2019 MEMB     16       SAPC     H18Y     HAL3     0.900000E-01   1.00800           0
      2020 MEMB     16       SAPC     H18Z     HAL3     0.900000E-01   1.00800           0
      2021 MEMB     17       CHL1     C3       CRL1     0.140000       12.0110           0
      2022 MEMB     17       CHL1     H3       HGA1     0.900000E-01   1.00800           0
      2023 MEMB     17       CHL1     O3       OHL     -0.660000       15.9994           0
      2024 MEMB     17       CHL1     H3'      HOL      0.430000       1.00800           0
      2025 MEMB     17       CHL1     C4       CRL2    -0.180000       12.0110           0
      2026 MEMB     17       CHL1     H4A      HGA2     0.900000E-01   1.00800           0
      2027 MEMB     17       CHL1     H4B      HGA2     0.900000E-01   1.00800           0
      2028 MEMB     17       CHL1     C5       CEL1      0.00000       12.0110           0
      2029 MEMB     17       CHL1     C6       CEL1    -0.150000       12.0110           0
      2030 MEMB     17       CHL1     H6       HEL1     0.150000       1.00800           0
      2031 MEMB     17       CHL1     C7       CRL2    -0.180000       12.0110           0
      2032 MEMB     17       CHL1     H7A      HGA2     0.900000E-01   1.00800           0
      2033 MEMB     17       CHL1     H7B      HGA2     0.900000E-01   1.00800           0
      2034 MEMB     17       CHL1     C8       CRL1    -0.900000E-01   12.0110           0
      2035 MEMB     17       CHL1     H8       HGA1     0.900000E-01   1.00800           0
      2036 MEMB     17       CHL1     C14      CRL1    -0.900000E-01   12.0110           0
      2037 MEMB     17       CHL1     H14      HGA1     0.900000E-01   1.00800           0
      2038 MEMB     17       CHL1     C15      CRL2    -0.180000       12.0110           0
      2039 MEMB     17       CHL1     H15A     HGA2     0.900000E-01   1.00800           0
      2040 MEMB     17       CHL1     H15B     HGA2     0.900000E-01   1.00800           0
      2041 MEMB     17       CHL1     C16      CRL2    -0.180000       12.0110           0
      2042 MEMB     17       CHL1     H16A     HGA2     0.900000E-01   1.00800           0
      2043 MEMB     17       CHL1     H16B     HGA2     0.900000E-01   1.00800           0
      2044 MEMB     17       CHL1     C17      CRL1    -0.900000E-01   12.0110           0
      2045 MEMB     17       CHL1     H17      HGA1     0.900000E-01   1.00800           0
      2046 MEMB     17       CHL1     C13      CRL1      0.00000       12.0110           0
      2047 MEMB     17       CHL1     C18      CTL3    -0.270000       12.0110           0
      2048 MEMB     17       CHL1     H18A     HAL3     0.900000E-01   1.00800           0
      2049 MEMB     17       CHL1     H18B     HAL3     0.900000E-01   1.00800           0
      2050 MEMB     17       CHL1     H18C     HAL3     0.900000E-01   1.00800           0
      2051 MEMB     17       CHL1     C12      CRL2    -0.180000       12.0110           0
      2052 MEMB     17       CHL1     H12A     HGA2     0.900000E-01   1.00800           0
      2053 MEMB     17       CHL1     H12B     HGA2     0.900000E-01   1.00800           0
      2054 MEMB     17       CHL1     C11      CRL2    -0.180000       12.0110           0
      2055 MEMB     17       CHL1     H11A     HGA2     0.900000E-01   1.00800           0
      2056 MEMB     17       CHL1     H11B     HGA2     0.900000E-01   1.00800           0
      2057 MEMB     17       CHL1     C9       CRL1    -0.900000E-01   12.0110           0
      2058 MEMB     17       CHL1     H9       HGA1     0.900000E-01   1.00800           0
      2059 MEMB     17       CHL1     C10      CRL1      0.00000       12.0110           0
      2060 MEMB     17       CHL1     C19      CTL3    -0.270000       12.0110           0
      2061 MEMB     17       CHL1     H19A     HAL3     0.900000E-01   1.00800           0
      2062 MEMB     17       CHL1     H19B     HAL3     0.900000E-01   1.00800           0
      2063 MEMB     17       CHL1     H19C     HAL3     0.900000E-01   1.00800           0
      2064 MEMB     17       CHL1     C1       CRL2    -0.180000       12.0110           0
      2065 MEMB     17       CHL1     H1A      HGA2     0.900000E-01   1.00800           0
      2066 MEMB     17       CHL1     H1B      HGA2     0.900000E-01   1.00800           0
      2067 MEMB     17       CHL1     C2       CRL2    -0.180000       12.0110           0
      2068 MEMB     17       CHL1     H2A      HGA2     0.900000E-01   1.00800           0
      2069 MEMB     17       CHL1     H2B      HGA2     0.900000E-01   1.00800           0
      2070 MEMB     17       CHL1     C20      CTL1    -0.900000E-01   12.0110           0
      2071 MEMB     17       CHL1     H20      HAL1     0.900000E-01   1.00800           0
      2072 MEMB     17       CHL1     C21      CTL3    -0.270000       12.0110           0
      2073 MEMB     17       CHL1     H21A     HAL3     0.900000E-01   1.00800           0
      2074 MEMB     17       CHL1     H21B     HAL3     0.900000E-01   1.00800           0
      2075 MEMB     17       CHL1     H21C     HAL3     0.900000E-01   1.00800           0
      2076 MEMB     17       CHL1     C22      CTL2    -0.180000       12.0110           0
      2077 MEMB     17       CHL1     H22A     HAL2     0.900000E-01   1.00800           0
      2078 MEMB     17       CHL1     H22B     HAL2     0.900000E-01   1.00800           0
      2079 MEMB     17       CHL1     C23      CTL2    -0.180000       12.0110           0
      2080 MEMB     17       CHL1     H23A     HAL2     0.900000E-01   1.00800           0
      2081 MEMB     17       CHL1     H23B     HAL2     0.900000E-01   1.00800           0
      2082 MEMB     17       CHL1     C24      CTL2    -0.180000       12.0110           0
      2083 MEMB     17       CHL1     H24A     HAL2     0.900000E-01   1.00800           0
      2084 MEMB     17       CHL1     H24B     HAL2     0.900000E-01   1.00800           0
      2085 MEMB     17       CHL1     C25      CTL1    -0.900000E-01   12.0110           0
      2086 MEMB     17       CHL1     H25      HAL1     0.900000E-01   1.00800           0
      2087 MEMB     17       CHL1     C26      CTL3    -0.270000       12.0110           0
      2088 MEMB     17       CHL1     H26A     HAL3     0.900000E-01   1.00800           0
      2089 MEMB     17       CHL1     H26B     HAL3     0.900000E-01   1.00800           0
      2090 MEMB     17       CHL1     H26C     HAL3     0.900000E-01   1.00800           0
      2091 MEMB     17       CHL1     C27      CTL3    -0.270000       12.0110           0
      2092 MEMB     17       CHL1     H27A     HAL3     0.900000E-01   1.00800           0
      2093 MEMB     17       CHL1     H27B     HAL3     0.900000E-01   1.00800           0
      2094 MEMB     17       CHL1     H27C     HAL3     0.900000E-01   1.00800           0
      2095 MEMB     18       OSM      N        NTL     -0.600000       14.0070           0
      2096 MEMB     18       OSM      C15      CTL5    -0.350000       12.0110           0
      2097 MEMB     18       OSM      H15A     HL       0.250000       1.00800           0
      2098 MEMB     18       OSM      H15B     HL       0.250000       1.00800           0
      2099 MEMB     18       OSM      H15C     HL       0.250000       1.00800           0
      2100 MEMB     18       OSM      C14      CTL5    -0.350000       12.0110           0
      2101 MEMB     18       OSM      H14A     HL       0.250000       1.00800           0
      2102 MEMB     18       OSM      H14B     HL       0.250000       1.00800           0
      2103 MEMB     18       OSM      H14C     HL       0.250000       1.00800           0
      2104 MEMB     18       OSM      C13      CTL5    -0.350000       12.0110           0
      2105 MEMB     18       OSM      H13A     HL       0.250000       1.00800           0
      2106 MEMB     18       OSM      H13B     HL       0.250000       1.00800           0
      2107 MEMB     18       OSM      H13C     HL       0.250000       1.00800           0
      2108 MEMB     18       OSM      C12      CTL2    -0.100000       12.0110           0
      2109 MEMB     18       OSM      H12A     HL       0.250000       1.00800           0
      2110 MEMB     18       OSM      H12B     HL       0.250000       1.00800           0
      2111 MEMB     18       OSM      C11      CTL2    -0.800000E-01   12.0110           0
      2112 MEMB     18       OSM      H11A     HAL2     0.900000E-01   1.00800           0
      2113 MEMB     18       OSM      H11B     HAL2     0.900000E-01   1.00800           0
      2114 MEMB     18       OSM      P        PL        1.50000       30.9740           0
      2115 MEMB     18       OSM      O13      O2L     -0.780000       15.9994           0
      2116 MEMB     18       OSM      O14      O2L     -0.780000       15.9994           0
      2117 MEMB     18       OSM      O11      OSLP    -0.570000       15.9994           0
      2118 MEMB     18       OSM      O12      OSLP    -0.570000       15.9994           0
      2119 MEMB     18       OSM      C1S      CTL2    -0.800000E-01   12.0110           0
      2120 MEMB     18       OSM      H1S      HAL2     0.900000E-01   1.00800           0
      2121 MEMB     18       OSM      H1T      HAL2     0.900000E-01   1.00800           0
      2122 MEMB     18       OSM      NF       NHL     -0.700000       14.0070           0
      2123 MEMB     18       OSM      HNF      H        0.350000       1.00800           0
      2124 MEMB     18       OSM      C2S      CTL1     0.300000       12.0110           0
      2125 MEMB     18       OSM      H2S      HAL1     0.500000E-01   1.00800           0
      2126 MEMB     18       OSM      C3S      CTO1     0.500000       12.0110           0
      2127 MEMB     18       OSM      H3S      HAL1    -0.110000       1.00800           0
      2128 MEMB     18       OSM      O3       OHL     -0.690000       15.9994           0
      2129 MEMB     18       OSM      HO3      HOL      0.300000       1.00800           0
      2130 MEMB     18       OSM      C4S      CEL3    -0.150000       12.0110           0
      2131 MEMB     18       OSM      H4S      HEL1     0.150000       1.00800           0
      2132 MEMB     18       OSM      C5S      CEL3    -0.150000       12.0110           0
      2133 MEMB     18       OSM      H5S      HEL1     0.150000       1.00800           0
      2134 MEMB     18       OSM      C6S      CTL2    -0.180000       12.0110           0
      2135 MEMB     18       OSM      H6S      HAL2     0.900000E-01   1.00800           0
      2136 MEMB     18       OSM      H6T      HAL2     0.900000E-01   1.00800           0
      2137 MEMB     18       OSM      C7S      CTL2    -0.180000       12.0110           0
      2138 MEMB     18       OSM      H7S      HAL2     0.900000E-01   1.00800           0
      2139 MEMB     18       OSM      H7T      HAL2     0.900000E-01   1.00800           0
      2140 MEMB     18       OSM      C8S      CTL2    -0.180000       12.0110           0
      2141 MEMB     18       OSM      H8S      HAL2     0.900000E-01   1.00800           0
      2142 MEMB     18       OSM      H8T      HAL2     0.900000E-01   1.00800           0
      2143 MEMB     18       OSM      C9S      CTL2    -0.180000       12.0110           0
      2144 MEMB     18       OSM      H9S      HAL2     0.900000E-01   1.00800           0
      2145 MEMB     18       OSM      H9T      HAL2     0.900000E-01   1.00800           0
      2146 MEMB     18       OSM      C10S     CTL2    -0.180000       12.0110           0
      2147 MEMB     18       OSM      H10S     HAL2     0.900000E-01   1.00800           0
      2148 MEMB     18       OSM      H10T     HAL2     0.900000E-01   1.00800           0
      2149 MEMB     18       OSM      C11S     CTL2    -0.180000       12.0110           0
      2150 MEMB     18       OSM      H11S     HAL2     0.900000E-01   1.00800           0
      2151 MEMB     18       OSM      H11T     HAL2     0.900000E-01   1.00800           0
      2152 MEMB     18       OSM      C12S     CTL2    -0.180000       12.0110           0
      2153 MEMB     18       OSM      H12S     HAL2     0.900000E-01   1.00800           0
      2154 MEMB     18       OSM      H12T     HAL2     0.900000E-01   1.00800           0
      2155 MEMB     18       OSM      C13S     CTL2    -0.180000       12.0110           0
      2156 MEMB     18       OSM      H13S     HAL2     0.900000E-01   1.00800           0
      2157 MEMB     18       OSM      H13T     HAL2     0.900000E-01   1.00800           0
      2158 MEMB     18       OSM      C14S     CTL2    -0.180000       12.0110           0
      2159 MEMB     18       OSM      H14S     HAL2     0.900000E-01   1.00800           0
      2160 MEMB     18       OSM      H14T     HAL2     0.900000E-01   1.00800           0
      2161 MEMB     18       OSM      C15S     CTL2    -0.180000       12.0110           0
      2162 MEMB     18       OSM      H15S     HAL2     0.900000E-01   1.00800           0
      2163 MEMB     18       OSM      H15T     HAL2     0.900000E-01   1.00800           0
      2164 MEMB     18       OSM      C16S     CTL2    -0.180000       12.0110           0
      2165 MEMB     18       OSM      H16S     HAL2     0.900000E-01   1.00800           0
      2166 MEMB     18       OSM      H16T     HAL2     0.900000E-01   1.00800           0
      2167 MEMB     18       OSM      C17S     CTL2    -0.180000       12.0110           0
      2168 MEMB     18       OSM      H17S     HAL2     0.900000E-01   1.00800           0
      2169 MEMB     18       OSM      H17T     HAL2     0.900000E-01   1.00800           0
      2170 MEMB     18       OSM      C18S     CTL3    -0.270000       12.0110           0
      2171 MEMB     18       OSM      H18S     HAL3     0.900000E-01   1.00800           0
      2172 MEMB     18       OSM      H18T     HAL3     0.900000E-01   1.00800           0
      2173 MEMB     18       OSM      H18U     HAL3     0.900000E-01   1.00800           0
      2174 MEMB     18       OSM      C1F      C        0.550000       12.0110           0
      2175 MEMB     18       OSM      OF       O       -0.600000       15.9994           0
      2176 MEMB     18       OSM      C2F      CTL2    -0.700000E-01   12.0110           0
      2177 MEMB     18       OSM      H2F      HAL2     0.600000E-01   1.00800           0
      2178 MEMB     18       OSM      H2G      HAL2     0.600000E-01   1.00800           0
      2179 MEMB     18       OSM      C3F      CTL2    -0.180000       12.0110           0
      2180 MEMB     18       OSM      H3F      HAL2     0.900000E-01   1.00800           0
      2181 MEMB     18       OSM      H3G      HAL2     0.900000E-01   1.00800           0
      2182 MEMB     18       OSM      C4F      CTL2    -0.180000       12.0110           0
      2183 MEMB     18       OSM      H4F      HAL2     0.900000E-01   1.00800           0
      2184 MEMB     18       OSM      H4G      HAL2     0.900000E-01   1.00800           0
      2185 MEMB     18       OSM      C5F      CTL2    -0.180000       12.0110           0
      2186 MEMB     18       OSM      H5F      HAL2     0.900000E-01   1.00800           0
      2187 MEMB     18       OSM      H5G      HAL2     0.900000E-01   1.00800           0
      2188 MEMB     18       OSM      C6F      CTL2    -0.180000       12.0110           0
      2189 MEMB     18       OSM      H6F      HAL2     0.900000E-01   1.00800           0
      2190 MEMB     18       OSM      H6G      HAL2     0.900000E-01   1.00800           0
      2191 MEMB     18       OSM      C7F      CTL2    -0.180000       12.0110           0
      2192 MEMB     18       OSM      H7F      HAL2     0.900000E-01   1.00800           0
      2193 MEMB     18       OSM      H7G      HAL2     0.900000E-01   1.00800           0
      2194 MEMB     18       OSM      C8F      CTL2    -0.180000       12.0110           0
      2195 MEMB     18       OSM      H8F      HAL2     0.900000E-01   1.00800           0
      2196 MEMB     18       OSM      H8G      HAL2     0.900000E-01   1.00800           0
      2197 MEMB     18       OSM      C9F      CEL1    -0.150000       12.0110           0
      2198 MEMB     18       OSM      H9F      HEL1     0.150000       1.00800           0
      2199 MEMB     18       OSM      C10F     CEL1    -0.150000       12.0110           0
      2200 MEMB     18       OSM      H10F     HEL1     0.150000       1.00800           0
      2201 MEMB     18       OSM      C11F     CTL2    -0.180000       12.0110           0
      2202 MEMB     18       OSM      H11F     HAL2     0.900000E-01   1.00800           0
      2203 MEMB     18       OSM      H11G     HAL2     0.900000E-01   1.00800           0
      2204 MEMB     18       OSM      C12F     CTL2    -0.180000       12.0110           0
      2205 MEMB     18       OSM      H12F     HAL2     0.900000E-01   1.00800           0
      2206 MEMB     18       OSM      H12G     HAL2     0.900000E-01   1.00800           0
      2207 MEMB     18       OSM      C13F     CTL2    -0.180000       12.0110           0
      2208 MEMB     18       OSM      H13F     HAL2     0.900000E-01   1.00800           0
      2209 MEMB     18       OSM      H13G     HAL2     0.900000E-01   1.00800           0
      2210 MEMB     18       OSM      C14F     CTL2    -0.180000       12.0110           0
      2211 MEMB     18       OSM      H14F     HAL2     0.900000E-01   1.00800           0
      2212 MEMB     18       OSM      H14G     HAL2     0.900000E-01   1.00800           0
      2213 MEMB     18       OSM      C15F     CTL2    -0.180000       12.0110           0
      2214 MEMB     18       OSM      H15F     HAL2     0.900000E-01   1.00800           0
      2215 MEMB     18       OSM      H15G     HAL2     0.900000E-01   1.00800           0
      2216 MEMB     18       OSM      C16F     CTL2    -0.180000       12.0110           0
      2217 MEMB     18       OSM      H16F     HAL2     0.900000E-01   1.00800           0
      2218 MEMB     18       OSM      H16G     HAL2     0.900000E-01   1.00800           0
      2219 MEMB     18       OSM      C17F     CTL2    -0.180000       12.0110           0
      2220 MEMB     18       OSM      H17F     HAL2     0.900000E-01   1.00800           0
      2221 MEMB     18       OSM      H17G     HAL2     0.900000E-01   1.00800           0
      2222 MEMB     18       OSM      C18F     CTL3    -0.270000       12.0110           0
      2223 MEMB     18       OSM      H18F     HAL3     0.900000E-01   1.00800           0
      2224 MEMB     18       OSM      H18G     HAL3     0.900000E-01   1.00800           0
      2225 MEMB     18       OSM      H18H     HAL3     0.900000E-01   1.00800           0
      2226 MEMB     19       SLPC     N        NTL     -0.600000       14.0070           0
      2227 MEMB     19       SLPC     C13      CTL5    -0.350000       12.0110           0
      2228 MEMB     19       SLPC     H13A     HL       0.250000       1.00800           0
      2229 MEMB     19       SLPC     H13B     HL       0.250000       1.00800           0
      2230 MEMB     19       SLPC     H13C     HL       0.250000       1.00800           0
      2231 MEMB     19       SLPC     C14      CTL5    -0.350000       12.0110           0
      2232 MEMB     19       SLPC     H14A     HL       0.250000       1.00800           0
      2233 MEMB     19       SLPC     H14B     HL       0.250000       1.00800           0
      2234 MEMB     19       SLPC     H14C     HL       0.250000       1.00800           0
      2235 MEMB     19       SLPC     C15      CTL5    -0.350000       12.0110           0
      2236 MEMB     19       SLPC     H15A     HL       0.250000       1.00800           0
      2237 MEMB     19       SLPC     H15B     HL       0.250000       1.00800           0
      2238 MEMB     19       SLPC     H15C     HL       0.250000       1.00800           0
      2239 MEMB     19       SLPC     C12      CTL2    -0.100000       12.0110           0
      2240 MEMB     19       SLPC     H12A     HL       0.250000       1.00800           0
      2241 MEMB     19       SLPC     H12B     HL       0.250000       1.00800           0
      2242 MEMB     19       SLPC     C11      CTL2    -0.800000E-01   12.0110           0
      2243 MEMB     19       SLPC     H11A     HAL2     0.900000E-01   1.00800           0
      2244 MEMB     19       SLPC     H11B     HAL2     0.900000E-01   1.00800           0
      2245 MEMB     19       SLPC     P        PL        1.50000       30.9740           0
      2246 MEMB     19       SLPC     O13      O2L     -0.780000       15.9994           0
      2247 MEMB     19       SLPC     O14      O2L     -0.780000       15.9994           0
      2248 MEMB     19       SLPC     O12      OSLP    -0.570000       15.9994           0
      2249 MEMB     19       SLPC     O11      OSLP    -0.570000       15.9994           0
      2250 MEMB     19       SLPC     C1       CTL2    -0.800000E-01   12.0110           0
      2251 MEMB     19       SLPC     HA       HAL2     0.900000E-01   1.00800           0
      2252 MEMB     19       SLPC     HB       HAL2     0.900000E-01   1.00800           0
      2253 MEMB     19       SLPC     C2       CTL1     0.170000       12.0110           0
      2254 MEMB     19       SLPC     HS       HAL1     0.900000E-01   1.00800           0
      2255 MEMB     19       SLPC     O21      OSL     -0.490000       15.9994           0
      2256 MEMB     19       SLPC     C21      CL       0.900000       12.0110           0
      2257 MEMB     19       SLPC     O22      OBL     -0.630000       15.9994           0
      2258 MEMB     19       SLPC     C22      CTL2    -0.220000       12.0110           0
      2259 MEMB     19       SLPC     H2R      HAL2     0.900000E-01   1.00800           0
      2260 MEMB     19       SLPC     H2S      HAL2     0.900000E-01   1.00800           0
      2261 MEMB     19       SLPC     C3       CTL2     0.800000E-01   12.0110           0
      2262 MEMB     19       SLPC     HX       HAL2     0.900000E-01   1.00800           0
      2263 MEMB     19       SLPC     HY       HAL2     0.900000E-01   1.00800           0
      2264 MEMB     19       SLPC     O31      OSL     -0.490000       15.9994           0
      2265 MEMB     19       SLPC     C31      CL       0.900000       12.0110           0
      2266 MEMB     19       SLPC     O32      OBL     -0.630000       15.9994           0
      2267 MEMB     19       SLPC     C32      CTL2    -0.220000       12.0110           0
      2268 MEMB     19       SLPC     H2X      HAL2     0.900000E-01   1.00800           0
      2269 MEMB     19       SLPC     H2Y      HAL2     0.900000E-01   1.00800           0
      2270 MEMB     19       SLPC     C23      CTL2    -0.180000       12.0110           0
      2271 MEMB     19       SLPC     H3R      HAL2     0.900000E-01   1.00800           0
      2272 MEMB     19       SLPC     H3S      HAL2     0.900000E-01   1.00800           0
      2273 MEMB     19       SLPC     C24      CTL2    -0.180000       12.0110           0
      2274 MEMB     19       SLPC     H4R      HAL2     0.900000E-01   1.00800           0
      2275 MEMB     19       SLPC     H4S      HAL2     0.900000E-01   1.00800           0
      2276 MEMB     19       SLPC     C25      CTL2    -0.180000       12.0110           0
      2277 MEMB     19       SLPC     H5R      HAL2     0.900000E-01   1.00800           0
      2278 MEMB     19       SLPC     H5S      HAL2     0.900000E-01   1.00800           0
      2279 MEMB     19       SLPC     C26      CTL2    -0.180000       12.0110           0
      2280 MEMB     19       SLPC     H6R      HAL2     0.900000E-01   1.00800           0
      2281 MEMB     19       SLPC     H6S      HAL2     0.900000E-01   1.00800           0
      2282 MEMB     19       SLPC     C27      CTL2    -0.180000       12.0110           0
      2283 MEMB     19       SLPC     H7R      HAL2     0.900000E-01   1.00800           0
      2284 MEMB     19       SLPC     H7S      HAL2     0.900000E-01   1.00800           0
      2285 MEMB     19       SLPC     C28      CTL2    -0.180000       12.0110           0
      2286 MEMB     19       SLPC     H8R      HAL2     0.900000E-01   1.00800           0
      2287 MEMB     19       SLPC     H8S      HAL2     0.900000E-01   1.00800           0
      2288 MEMB     19       SLPC     C29      CEL1    -0.150000       12.0110           0
      2289 MEMB     19       SLPC     H9R      HEL1     0.150000       1.00800           0
      2290 MEMB     19       SLPC     C210     CEL1    -0.150000       12.0110           0
      2291 MEMB     19       SLPC     H10R     HEL1     0.150000       1.00800           0
      2292 MEMB     19       SLPC     C211     CTL2    -0.180000       12.0110           0
      2293 MEMB     19       SLPC     H11R     HAL2     0.900000E-01   1.00800           0
      2294 MEMB     19       SLPC     H11S     HAL2     0.900000E-01   1.00800           0
      2295 MEMB     19       SLPC     C212     CEL1    -0.150000       12.0110           0
      2296 MEMB     19       SLPC     H12R     HEL1     0.150000       1.00800           0
      2297 MEMB     19       SLPC     C213     CEL1    -0.150000       12.0110           0
      2298 MEMB     19       SLPC     H13R     HEL1     0.150000       1.00800           0
      2299 MEMB     19       SLPC     C214     CTL2    -0.180000       12.0110           0
      2300 MEMB     19       SLPC     H14R     HAL2     0.900000E-01   1.00800           0
      2301 MEMB     19       SLPC     H14S     HAL2     0.900000E-01   1.00800           0
      2302 MEMB     19       SLPC     C215     CTL2    -0.180000       12.0110           0
      2303 MEMB     19       SLPC     H15R     HAL2     0.900000E-01   1.00800           0
      2304 MEMB     19       SLPC     H15S     HAL2     0.900000E-01   1.00800           0
      2305 MEMB     19       SLPC     C216     CTL2    -0.180000       12.0110           0
      2306 MEMB     19       SLPC     H16R     HAL2     0.900000E-01   1.00800           0
      2307 MEMB     19       SLPC     H16S     HAL2     0.900000E-01   1.00800           0
      2308 MEMB     19       SLPC     C217     CTL2    -0.180000       12.0110           0
      2309 MEMB     19       SLPC     H17R     HAL2     0.900000E-01   1.00800           0
      2310 MEMB     19       SLPC     H17S     HAL2     0.900000E-01   1.00800           0
      2311 MEMB     19       SLPC     C218     CTL3    -0.270000       12.0110           0
      2312 MEMB     19       SLPC     H18R     HAL3     0.900000E-01   1.00800           0
      2313 MEMB     19       SLPC     H18S     HAL3     0.900000E-01   1.00800           0
      2314 MEMB     19       SLPC     H18T     HAL3     0.900000E-01   1.00800           0
      2315 MEMB     19       SLPC     C33      CTL2    -0.180000       12.0110           0
      2316 MEMB     19       SLPC     H3X      HAL2     0.900000E-01   1.00800           0
      2317 MEMB     19       SLPC     H3Y      HAL2     0.900000E-01   1.00800           0
      2318 MEMB     19       SLPC     C34      CTL2    -0.180000       12.0110           0
      2319 MEMB     19       SLPC     H4X      HAL2     0.900000E-01   1.00800           0
      2320 MEMB     19       SLPC     H4Y      HAL2     0.900000E-01   1.00800           0
      2321 MEMB     19       SLPC     C35      CTL2    -0.180000       12.0110           0
      2322 MEMB     19       SLPC     H5X      HAL2     0.900000E-01   1.00800           0
      2323 MEMB     19       SLPC     H5Y      HAL2     0.900000E-01   1.00800           0
      2324 MEMB     19       SLPC     C36      CTL2    -0.180000       12.0110           0
      2325 MEMB     19       SLPC     H6X      HAL2     0.900000E-01   1.00800           0
      2326 MEMB     19       SLPC     H6Y      HAL2     0.900000E-01   1.00800           0
      2327 MEMB     19       SLPC     C37      CTL2    -0.180000       12.0110           0
      2328 MEMB     19       SLPC     H7X      HAL2     0.900000E-01   1.00800           0
      2329 MEMB     19       SLPC     H7Y      HAL2     0.900000E-01   1.00800           0
      2330 MEMB     19       SLPC     C38      CTL2    -0.180000       12.0110           0
      2331 MEMB     19       SLPC     H8X      HAL2     0.900000E-01   1.00800           0
      2332 MEMB     19       SLPC     H8Y      HAL2     0.900000E-01   1.00800           0
      2333 MEMB     19       SLPC     C39      CTL2    -0.180000       12.0110           0
      2334 MEMB     19       SLPC     H9X      HAL2     0.900000E-01   1.00800           0
      2335 MEMB     19       SLPC     H9Y      HAL2     0.900000E-01   1.00800           0
      2336 MEMB     19       SLPC     C310     CTL2    -0.180000       12.0110           0
      2337 MEMB     19       SLPC     H10X     HAL2     0.900000E-01   1.00800           0
      2338 MEMB     19       SLPC     H10Y     HAL2     0.900000E-01   1.00800           0
      2339 MEMB     19       SLPC     C311     CTL2    -0.180000       12.0110           0
      2340 MEMB     19       SLPC     H11X     HAL2     0.900000E-01   1.00800           0
      2341 MEMB     19       SLPC     H11Y     HAL2     0.900000E-01   1.00800           0
      2342 MEMB     19       SLPC     C312     CTL2    -0.180000       12.0110           0
      2343 MEMB     19       SLPC     H12X     HAL2     0.900000E-01   1.00800           0
      2344 MEMB     19       SLPC     H12Y     HAL2     0.900000E-01   1.00800           0
      2345 MEMB     19       SLPC     C313     CTL2    -0.180000       12.0110           0
      2346 MEMB     19       SLPC     H13X     HAL2     0.900000E-01   1.00800           0
      2347 MEMB     19       SLPC     H13Y     HAL2     0.900000E-01   1.00800           0
      2348 MEMB     19       SLPC     C314     CTL2    -0.180000       12.0110           0
      2349 MEMB     19       SLPC     H14X     HAL2     0.900000E-01   1.00800           0
      2350 MEMB     19       SLPC     H14Y     HAL2     0.900000E-01   1.00800           0
      2351 MEMB     19       SLPC     C315     CTL2    -0.180000       12.0110           0
      2352 MEMB     19       SLPC     H15X     HAL2     0.900000E-01   1.00800           0
      2353 MEMB     19       SLPC     H15Y     HAL2     0.900000E-01   1.00800           0
      2354 MEMB     19       SLPC     C316     CTL2    -0.180000       12.0110           0
      2355 MEMB     19       SLPC     H16X     HAL2     0.900000E-01   1.00800           0
      2356 MEMB     19       SLPC     H16Y     HAL2     0.900000E-01   1.00800           0
      2357 MEMB     19       SLPC     C317     CTL2    -0.180000       12.0110           0
      2358 MEMB     19       SLPC     H17X     HAL2     0.900000E-01   1.00800           0
      2359 MEMB     19       SLPC     H17Y     HAL2     0.900000E-01   1.00800           0
      2360 MEMB     19       SLPC     C318     CTL3    -0.270000       12.0110           0
      2361 MEMB     19       SLPC     H18X     HAL3     0.900000E-01   1.00800           0
      2362 MEMB     19       SLPC     H18Y     HAL3     0.900000E-01   1.00800           0
      2363 MEMB     19       SLPC     H18Z     HAL3     0.900000E-01   1.00800           0
      2364 MEMB     20       CHL1     C3       CRL1     0.140000       12.0110           0
      2365 MEMB     20       CHL1     H3       HGA1     0.900000E-01   1.00800           0
      2366 MEMB     20       CHL1     O3       OHL     -0.660000       15.9994           0
      2367 MEMB     20       CHL1     H3'      HOL      0.430000       1.00800           0
      2368 MEMB     20       CHL1     C4       CRL2    -0.180000       12.0110           0
      2369 MEMB     20       CHL1     H4A      HGA2     0.900000E-01   1.00800           0
      2370 MEMB     20       CHL1     H4B      HGA2     0.900000E-01   1.00800           0
      2371 MEMB     20       CHL1     C5       CEL1      0.00000       12.0110           0
      2372 MEMB     20       CHL1     C6       CEL1    -0.150000       12.0110           0
      2373 MEMB     20       CHL1     H6       HEL1     0.150000       1.00800           0
      2374 MEMB     20       CHL1     C7       CRL2    -0.180000       12.0110           0
      2375 MEMB     20       CHL1     H7A      HGA2     0.900000E-01   1.00800           0
      2376 MEMB     20       CHL1     H7B      HGA2     0.900000E-01   1.00800           0
      2377 MEMB     20       CHL1     C8       CRL1    -0.900000E-01   12.0110           0
      2378 MEMB     20       CHL1     H8       HGA1     0.900000E-01   1.00800           0
      2379 MEMB     20       CHL1     C14      CRL1    -0.900000E-01   12.0110           0
      2380 MEMB     20       CHL1     H14      HGA1     0.900000E-01   1.00800           0
      2381 MEMB     20       CHL1     C15      CRL2    -0.180000       12.0110           0
      2382 MEMB     20       CHL1     H15A     HGA2     0.900000E-01   1.00800           0
      2383 MEMB     20       CHL1     H15B     HGA2     0.900000E-01   1.00800           0
      2384 MEMB     20       CHL1     C16      CRL2    -0.180000       12.0110           0
      2385 MEMB     20       CHL1     H16A     HGA2     0.900000E-01   1.00800           0
      2386 MEMB     20       CHL1     H16B     HGA2     0.900000E-01   1.00800           0
      2387 MEMB     20       CHL1     C17      CRL1    -0.900000E-01   12.0110           0
      2388 MEMB     20       CHL1     H17      HGA1     0.900000E-01   1.00800           0
      2389 MEMB     20       CHL1     C13      CRL1      0.00000       12.0110           0
      2390 MEMB     20       CHL1     C18      CTL3    -0.270000       12.0110           0
      2391 MEMB     20       CHL1     H18A     HAL3     0.900000E-01   1.00800           0
      2392 MEMB     20       CHL1     H18B     HAL3     0.900000E-01   1.00800           0
      2393 MEMB     20       CHL1     H18C     HAL3     0.900000E-01   1.00800           0
      2394 MEMB     20       CHL1     C12      CRL2    -0.180000       12.0110           0
      2395 MEMB     20       CHL1     H12A     HGA2     0.900000E-01   1.00800           0
      2396 MEMB     20       CHL1     H12B     HGA2     0.900000E-01   1.00800           0
      2397 MEMB     20       CHL1     C11      CRL2    -0.180000       12.0110           0
      2398 MEMB     20       CHL1     H11A     HGA2     0.900000E-01   1.00800           0
      2399 MEMB     20       CHL1     H11B     HGA2     0.900000E-01   1.00800           0
      2400 MEMB     20       CHL1     C9       CRL1    -0.900000E-01   12.0110           0
      2401 MEMB     20       CHL1     H9       HGA1     0.900000E-01   1.00800           0
      2402 MEMB     20       CHL1     C10      CRL1      0.00000       12.0110           0
      2403 MEMB     20       CHL1     C19      CTL3    -0.270000       12.0110           0
      2404 MEMB     20       CHL1     H19A     HAL3     0.900000E-01   1.00800           0
      2405 MEMB     20       CHL1     H19B     HAL3     0.900000E-01   1.00800           0
      2406 MEMB     20       CHL1     H19C     HAL3     0.900000E-01   1.00800           0
      2407 MEMB     20       CHL1     C1       CRL2    -0.180000       12.0110           0
      2408 MEMB     20       CHL1     H1A      HGA2     0.900000E-01   1.00800           0
      2409 MEMB     20       CHL1     H1B      HGA2     0.900000E-01   1.00800           0
      2410 MEMB     20       CHL1     C2       CRL2    -0.180000       12.0110           0
      2411 MEMB     20       CHL1     H2A      HGA2     0.900000E-01   1.00800           0
      2412 MEMB     20       CHL1     H2B      HGA2     0.900000E-01   1.00800           0
      2413 MEMB     20       CHL1     C20      CTL1    -0.900000E-01   12.0110           0
      2414 MEMB     20       CHL1     H20      HAL1     0.900000E-01   1.00800           0
      2415 MEMB     20       CHL1     C21      CTL3    -0.270000       12.0110           0
      2416 MEMB     20       CHL1     H21A     HAL3     0.900000E-01   1.00800           0
      2417 MEMB     20       CHL1     H21B     HAL3     0.900000E-01   1.00800           0
      2418 MEMB     20       CHL1     H21C     HAL3     0.900000E-01   1.00800           0
      2419 MEMB     20       CHL1     C22      CTL2    -0.180000       12.0110           0
      2420 MEMB     20       CHL1     H22A     HAL2     0.900000E-01   1.00800           0
      2421 MEMB     20       CHL1     H22B     HAL2     0.900000E-01   1.00800           0
      2422 MEMB     20       CHL1     C23      CTL2    -0.180000       12.0110           0
      2423 MEMB     20       CHL1     H23A     HAL2     0.900000E-01   1.00800           0
      2424 MEMB     20       CHL1     H23B     HAL2     0.900000E-01   1.00800           0
      2425 MEMB     20       CHL1     C24      CTL2    -0.180000       12.0110           0
      2426 MEMB     20       CHL1     H24A     HAL2     0.900000E-01   1.00800           0
      2427 MEMB     20       CHL1     H24B     HAL2     0.900000E-01   1.00800           0
      2428 MEMB     20       CHL1     C25      CTL1    -0.900000E-01   12.0110           0
      2429 MEMB     20       CHL1     H25      HAL1     0.900000E-01   1.00800           0
      2430 MEMB     20       CHL1     C26      CTL3    -0.270000       12.0110           0
      2431 MEMB     20       CHL1     H26A     HAL3     0.900000E-01   1.00800           0
      2432 MEMB     20       CHL1     H26B     HAL3     0.900000E-01   1.00800           0
      2433 MEMB     20       CHL1     H26C     HAL3     0.900000E-01   1.00800           0
      2434 MEMB     20       CHL1     C27      CTL3    -0.270000       12.0110           0
      2435 MEMB     20       CHL1     H27A     HAL3     0.900000E-01   1.00800           0
      2436 MEMB     20       CHL1     H27B     HAL3     0.900000E-01   1.00800           0
      2437 MEMB     20       CHL1     H27C     HAL3     0.900000E-01   1.00800           0
      2438 MEMB     21       CHL1     C3       CRL1     0.140000       12.0110           0
      2439 MEMB     21       CHL1     H3       HGA1     0.900000E-01   1.00800           0
      2440 MEMB     21       CHL1     O3       OHL     -0.660000       15.9994           0
      2441 MEMB     21       CHL1     H3'      HOL      0.430000       1.00800           0
      2442 MEMB     21       CHL1     C4       CRL2    -0.180000       12.0110           0
      2443 MEMB     21       CHL1     H4A      HGA2     0.900000E-01   1.00800           0
      2444 MEMB     21       CHL1     H4B      HGA2     0.900000E-01   1.00800           0
      2445 MEMB     21       CHL1     C5       CEL1      0.00000       12.0110           0
      2446 MEMB     21       CHL1     C6       CEL1    -0.150000       12.0110           0
      2447 MEMB     21       CHL1     H6       HEL1     0.150000       1.00800           0
      2448 MEMB     21       CHL1     C7       CRL2    -0.180000       12.0110           0
      2449 MEMB     21       CHL1     H7A      HGA2     0.900000E-01   1.00800           0
      2450 MEMB     21       CHL1     H7B      HGA2     0.900000E-01   1.00800           0
      2451 MEMB     21       CHL1     C8       CRL1    -0.900000E-01   12.0110           0
      2452 MEMB     21       CHL1     H8       HGA1     0.900000E-01   1.00800           0
      2453 MEMB     21       CHL1     C14      CRL1    -0.900000E-01   12.0110           0
      2454 MEMB     21       CHL1     H14      HGA1     0.900000E-01   1.00800           0
      2455 MEMB     21       CHL1     C15      CRL2    -0.180000       12.0110           0
      2456 MEMB     21       CHL1     H15A     HGA2     0.900000E-01   1.00800           0
      2457 MEMB     21       CHL1     H15B     HGA2     0.900000E-01   1.00800           0
      2458 MEMB     21       CHL1     C16      CRL2    -0.180000       12.0110           0
      2459 MEMB     21       CHL1     H16A     HGA2     0.900000E-01   1.00800           0
      2460 MEMB     21       CHL1     H16B     HGA2     0.900000E-01   1.00800           0
      2461 MEMB     21       CHL1     C17      CRL1    -0.900000E-01   12.0110           0
      2462 MEMB     21       CHL1     H17      HGA1     0.900000E-01   1.00800           0
      2463 MEMB     21       CHL1     C13      CRL1      0.00000       12.0110           0
      2464 MEMB     21       CHL1     C18      CTL3    -0.270000       12.0110           0
      2465 MEMB     21       CHL1     H18A     HAL3     0.900000E-01   1.00800           0
      2466 MEMB     21       CHL1     H18B     HAL3     0.900000E-01   1.00800           0
      2467 MEMB     21       CHL1     H18C     HAL3     0.900000E-01   1.00800           0
      2468 MEMB     21       CHL1     C12      CRL2    -0.180000       12.0110           0
      2469 MEMB     21       CHL1     H12A     HGA2     0.900000E-01   1.00800           0
      2470 MEMB     21       CHL1     H12B     HGA2     0.900000E-01   1.00800           0
      2471 MEMB     21       CHL1     C11      CRL2    -0.180000       12.0110           0
      2472 MEMB     21       CHL1     H11A     HGA2     0.900000E-01   1.00800           0
      2473 MEMB     21       CHL1     H11B     HGA2     0.900000E-01   1.00800           0
      2474 MEMB     21       CHL1     C9       CRL1    -0.900000E-01   12.0110           0
      2475 MEMB     21       CHL1     H9       HGA1     0.900000E-01   1.00800           0
      2476 MEMB     21       CHL1     C10      CRL1      0.00000       12.0110           0
      2477 MEMB     21       CHL1     C19      CTL3    -0.270000       12.0110           0
      2478 MEMB     21       CHL1     H19A     HAL3     0.900000E-01   1.00800           0
      2479 MEMB     21       CHL1     H19B     HAL3     0.900000E-01   1.00800           0
      2480 MEMB     21       CHL1     H19C     HAL3     0.900000E-01   1.00800           0
      2481 MEMB     21       CHL1     C1       CRL2    -0.180000       12.0110           0
      2482 MEMB     21       CHL1     H1A      HGA2     0.900000E-01   1.00800           0
      2483 MEMB     21       CHL1     H1B      HGA2     0.900000E-01   1.00800           0
      2484 MEMB     21       CHL1     C2       CRL2    -0.180000       12.0110           0
      2485 MEMB     21       CHL1     H2A      HGA2     0.900000E-01   1.00800           0
      2486 MEMB     21       CHL1     H2B      HGA2     0.900000E-01   1.00800           0
      2487 MEMB     21       CHL1     C20      CTL1    -0.900000E-01   12.0110           0
      2488 MEMB     21       CHL1     H20      HAL1     0.900000E-01   1.00800           0
      2489 MEMB     21       CHL1     C21      CTL3    -0.270000       12.0110           0
      2490 MEMB     21       CHL1     H21A     HAL3     0.900000E-01   1.00800           0
      2491 MEMB     21       CHL1     H21B     HAL3     0.900000E-01   1.00800           0
      2492 MEMB     21       CHL1     H21C     HAL3     0.900000E-01   1.00800           0
      2493 MEMB     21       CHL1     C22      CTL2    -0.180000       12.0110           0
      2494 MEMB     21       CHL1     H22A     HAL2     0.900000E-01   1.00800           0
      2495 MEMB     21       CHL1     H22B     HAL2     0.900000E-01   1.00800           0
      2496 MEMB     21       CHL1     C23      CTL2    -0.180000       12.0110           0
      2497 MEMB     21       CHL1     H23A     HAL2     0.900000E-01   1.00800           0
      2498 MEMB     21       CHL1     H23B     HAL2     0.900000E-01   1.00800           0
      2499 MEMB     21       CHL1     C24      CTL2    -0.180000       12.0110           0
      2500 MEMB     21       CHL1     H24A     HAL2     0.900000E-01   1.00800           0
      2501 MEMB     21       CHL1     H24B     HAL2     0.900000E-01   1.00800           0
      2502 MEMB     21       CHL1     C25      CTL1    -0.900000E-01   12.0110           0
      2503 MEMB     21       CHL1     H25      HAL1     0.900000E-01   1.00800           0
      2504 MEMB     21       CHL1     C26      CTL3    -0.270000       12.0110           0
      2505 MEMB     21       CHL1     H26A     HAL3     0.900000E-01   1.00800           0
      2506 MEMB     21       CHL1     H26B     HAL3     0.900000E-01   1.00800           0
      2507 MEMB     21       CHL1     H26C     HAL3     0.900000E-01   1.00800           0
      2508 MEMB     21       CHL1     C27      CTL3    -0.270000       12.0110           0
      2509 MEMB     21       CHL1     H27A     HAL3     0.900000E-01   1.00800           0
      2510 MEMB     21       CHL1     H27B     HAL3     0.900000E-01   1.00800           0
      2511 MEMB     21       CHL1     H27C     HAL3     0.900000E-01   1.00800           0
      2512 MEMB     22       SAPE     N        NH3L    -0.300000       14.0070           0
      2513 MEMB     22       SAPE     HN1      HCL      0.330000       1.00800           0
      2514 MEMB     22       SAPE     HN2      HCL      0.330000       1.00800           0
      2515 MEMB     22       SAPE     HN3      HCL      0.330000       1.00800           0
      2516 MEMB     22       SAPE     C12      CTL2     0.130000       12.0110           0
      2517 MEMB     22       SAPE     H12A     HAL2     0.900000E-01   1.00800           0
      2518 MEMB     22       SAPE     H12B     HAL2     0.900000E-01   1.00800           0
      2519 MEMB     22       SAPE     C11      CTL2    -0.800000E-01   12.0110           0
      2520 MEMB     22       SAPE     H11A     HAL2     0.900000E-01   1.00800           0
      2521 MEMB     22       SAPE     H11B     HAL2     0.900000E-01   1.00800           0
      2522 MEMB     22       SAPE     P        PL        1.50000       30.9740           0
      2523 MEMB     22       SAPE     O13      O2L     -0.780000       15.9994           0
      2524 MEMB     22       SAPE     O14      O2L     -0.780000       15.9994           0
      2525 MEMB     22       SAPE     O12      OSLP    -0.570000       15.9994           0
      2526 MEMB     22       SAPE     O11      OSLP    -0.570000       15.9994           0
      2527 MEMB     22       SAPE     C1       CTL2    -0.800000E-01   12.0110           0
      2528 MEMB     22       SAPE     HA       HAL2     0.900000E-01   1.00800           0
      2529 MEMB     22       SAPE     HB       HAL2     0.900000E-01   1.00800           0
      2530 MEMB     22       SAPE     C2       CTL1     0.170000       12.0110           0
      2531 MEMB     22       SAPE     HS       HAL1     0.900000E-01   1.00800           0
      2532 MEMB     22       SAPE     O21      OSL     -0.490000       15.9994           0
      2533 MEMB     22       SAPE     C21      CL       0.900000       12.0110           0
      2534 MEMB     22       SAPE     O22      OBL     -0.630000       15.9994           0
      2535 MEMB     22       SAPE     C22      CTL2    -0.220000       12.0110           0
      2536 MEMB     22       SAPE     H2R      HAL2     0.900000E-01   1.00800           0
      2537 MEMB     22       SAPE     H2S      HAL2     0.900000E-01   1.00800           0
      2538 MEMB     22       SAPE     C3       CTL2     0.800000E-01   12.0110           0
      2539 MEMB     22       SAPE     HX       HAL2     0.900000E-01   1.00800           0
      2540 MEMB     22       SAPE     HY       HAL2     0.900000E-01   1.00800           0
      2541 MEMB     22       SAPE     O31      OSL     -0.490000       15.9994           0
      2542 MEMB     22       SAPE     C31      CL       0.900000       12.0110           0
      2543 MEMB     22       SAPE     O32      OBL     -0.630000       15.9994           0
      2544 MEMB     22       SAPE     C32      CTL2    -0.220000       12.0110           0
      2545 MEMB     22       SAPE     H2X      HAL2     0.900000E-01   1.00800           0
      2546 MEMB     22       SAPE     H2Y      HAL2     0.900000E-01   1.00800           0
      2547 MEMB     22       SAPE     C23      CTL2    -0.180000       12.0110           0
      2548 MEMB     22       SAPE     H3R      HAL2     0.900000E-01   1.00800           0
      2549 MEMB     22       SAPE     H3S      HAL2     0.900000E-01   1.00800           0
      2550 MEMB     22       SAPE     C24      CTL2    -0.180000       12.0110           0
      2551 MEMB     22       SAPE     H4R      HAL2     0.900000E-01   1.00800           0
      2552 MEMB     22       SAPE     H4S      HAL2     0.900000E-01   1.00800           0
      2553 MEMB     22       SAPE     C25      CEL1    -0.150000       12.0110           0
      2554 MEMB     22       SAPE     H5R      HEL1     0.150000       1.00800           0
      2555 MEMB     22       SAPE     C26      CEL1    -0.150000       12.0110           0
      2556 MEMB     22       SAPE     H6R      HEL1     0.150000       1.00800           0
      2557 MEMB     22       SAPE     C27      CTL2    -0.180000       12.0110           0
      2558 MEMB     22       SAPE     H7R      HAL2     0.900000E-01   1.00800           0
      2559 MEMB     22       SAPE     H7S      HAL2     0.900000E-01   1.00800           0
      2560 MEMB     22       SAPE     C28      CEL1    -0.150000       12.0110           0
      2561 MEMB     22       SAPE     H8R      HEL1     0.150000       1.00800           0
      2562 MEMB     22       SAPE     C29      CEL1    -0.150000       12.0110           0
      2563 MEMB     22       SAPE     H9R      HEL1     0.150000       1.00800           0
      2564 MEMB     22       SAPE     C210     CTL2    -0.180000       12.0110           0
      2565 MEMB     22       SAPE     H10R     HAL2     0.900000E-01   1.00800           0
      2566 MEMB     22       SAPE     H10S     HAL2     0.900000E-01   1.00800           0
      2567 MEMB     22       SAPE     C211     CEL1    -0.150000       12.0110           0
      2568 MEMB     22       SAPE     H11R     HEL1     0.150000       1.00800           0
      2569 MEMB     22       SAPE     C212     CEL1    -0.150000       12.0110           0
      2570 MEMB     22       SAPE     H12R     HEL1     0.150000       1.00800           0
      2571 MEMB     22       SAPE     C213     CTL2    -0.180000       12.0110           0
      2572 MEMB     22       SAPE     H13R     HAL2     0.900000E-01   1.00800           0
      2573 MEMB     22       SAPE     H13S     HAL2     0.900000E-01   1.00800           0
      2574 MEMB     22       SAPE     C214     CEL1    -0.150000       12.0110           0
      2575 MEMB     22       SAPE     H14R     HEL1     0.150000       1.00800           0
      2576 MEMB     22       SAPE     C215     CEL1    -0.150000       12.0110           0
      2577 MEMB     22       SAPE     H15R     HEL1     0.150000       1.00800           0
      2578 MEMB     22       SAPE     C216     CTL2    -0.180000       12.0110           0
      2579 MEMB     22       SAPE     H16R     HAL2     0.900000E-01   1.00800           0
      2580 MEMB     22       SAPE     H16S     HAL2     0.900000E-01   1.00800           0
      2581 MEMB     22       SAPE     C217     CTL2    -0.180000       12.0110           0
      2582 MEMB     22       SAPE     H17R     HAL2     0.900000E-01   1.00800           0
      2583 MEMB     22       SAPE     H17S     HAL2     0.900000E-01   1.00800           0
      2584 MEMB     22       SAPE     C218     CTL2    -0.180000       12.0110           0
      2585 MEMB     22       SAPE     H18R     HAL2     0.900000E-01   1.00800           0
      2586 MEMB     22       SAPE     H18S     HAL2     0.900000E-01   1.00800           0
      2587 MEMB     22       SAPE     C219     CTL2    -0.180000       12.0110           0
      2588 MEMB     22       SAPE     H19R     HAL2     0.900000E-01   1.00800           0
      2589 MEMB     22       SAPE     H19S     HAL2     0.900000E-01   1.00800           0
      2590 MEMB     22       SAPE     C220     CTL3    -0.270000       12.0110           0
      2591 MEMB     22       SAPE     H20R     HAL3     0.900000E-01   1.00800           0
      2592 MEMB     22       SAPE     H20S     HAL3     0.900000E-01   1.00800           0
      2593 MEMB     22       SAPE     H20T     HAL3     0.900000E-01   1.00800           0
      2594 MEMB     22       SAPE     C33      CTL2    -0.180000       12.0110           0
      2595 MEMB     22       SAPE     H3X      HAL2     0.900000E-01   1.00800           0
      2596 MEMB     22       SAPE     H3Y      HAL2     0.900000E-01   1.00800           0
      2597 MEMB     22       SAPE     C34      CTL2    -0.180000       12.0110           0
      2598 MEMB     22       SAPE     H4X      HAL2     0.900000E-01   1.00800           0
      2599 MEMB     22       SAPE     H4Y      HAL2     0.900000E-01   1.00800           0
      2600 MEMB     22       SAPE     C35      CTL2    -0.180000       12.0110           0
      2601 MEMB     22       SAPE     H5X      HAL2     0.900000E-01   1.00800           0
      2602 MEMB     22       SAPE     H5Y      HAL2     0.900000E-01   1.00800           0
      2603 MEMB     22       SAPE     C36      CTL2    -0.180000       12.0110           0
      2604 MEMB     22       SAPE     H6X      HAL2     0.900000E-01   1.00800           0
      2605 MEMB     22       SAPE     H6Y      HAL2     0.900000E-01   1.00800           0
      2606 MEMB     22       SAPE     C37      CTL2    -0.180000       12.0110           0
      2607 MEMB     22       SAPE     H7X      HAL2     0.900000E-01   1.00800           0
      2608 MEMB     22       SAPE     H7Y      HAL2     0.900000E-01   1.00800           0
      2609 MEMB     22       SAPE     C38      CTL2    -0.180000       12.0110           0
      2610 MEMB     22       SAPE     H8X      HAL2     0.900000E-01   1.00800           0
      2611 MEMB     22       SAPE     H8Y      HAL2     0.900000E-01   1.00800           0
      2612 MEMB     22       SAPE     C39      CTL2    -0.180000       12.0110           0
      2613 MEMB     22       SAPE     H9X      HAL2     0.900000E-01   1.00800           0
      2614 MEMB     22       SAPE     H9Y      HAL2     0.900000E-01   1.00800           0
      2615 MEMB     22       SAPE     C310     CTL2    -0.180000       12.0110           0
      2616 MEMB     22       SAPE     H10X     HAL2     0.900000E-01   1.00800           0
      2617 MEMB     22       SAPE     H10Y     HAL2     0.900000E-01   1.00800           0
      2618 MEMB     22       SAPE     C311     CTL2    -0.180000       12.0110           0
      2619 MEMB     22       SAPE     H11X     HAL2     0.900000E-01   1.00800           0
      2620 MEMB     22       SAPE     H11Y     HAL2     0.900000E-01   1.00800           0
      2621 MEMB     22       SAPE     C312     CTL2    -0.180000       12.0110           0
      2622 MEMB     22       SAPE     H12X     HAL2     0.900000E-01   1.00800           0
      2623 MEMB     22       SAPE     H12Y     HAL2     0.900000E-01   1.00800           0
      2624 MEMB     22       SAPE     C313     CTL2    -0.180000       12.0110           0
      2625 MEMB     22       SAPE     H13X     HAL2     0.900000E-01   1.00800           0
      2626 MEMB     22       SAPE     H13Y     HAL2     0.900000E-01   1.00800           0
      2627 MEMB     22       SAPE     C314     CTL2    -0.180000       12.0110           0
      2628 MEMB     22       SAPE     H14X     HAL2     0.900000E-01   1.00800           0
      2629 MEMB     22       SAPE     H14Y     HAL2     0.900000E-01   1.00800           0
      2630 MEMB     22       SAPE     C315     CTL2    -0.180000       12.0110           0
      2631 MEMB     22       SAPE     H15X     HAL2     0.900000E-01   1.00800           0
      2632 MEMB     22       SAPE     H15Y     HAL2     0.900000E-01   1.00800           0
      2633 MEMB     22       SAPE     C316     CTL2    -0.180000       12.0110           0
      2634 MEMB     22       SAPE     H16X     HAL2     0.900000E-01   1.00800           0
      2635 MEMB     22       SAPE     H16Y     HAL2     0.900000E-01   1.00800           0
      2636 MEMB     22       SAPE     C317     CTL2    -0.180000       12.0110           0
      2637 MEMB     22       SAPE     H17X     HAL2     0.900000E-01   1.00800           0
      2638 MEMB     22       SAPE     H17Y     HAL2     0.900000E-01   1.00800           0
      2639 MEMB     22       SAPE     C318     CTL3    -0.270000       12.0110           0
      2640 MEMB     22       SAPE     H18X     HAL3     0.900000E-01   1.00800           0
      2641 MEMB     22       SAPE     H18Y     HAL3     0.900000E-01   1.00800           0
      2642 MEMB     22       SAPE     H18Z     HAL3     0.900000E-01   1.00800           0
      2643 MEMB     23       OSM      N        NTL     -0.600000       14.0070           0
      2644 MEMB     23       OSM      C15      CTL5    -0.350000       12.0110           0
      2645 MEMB     23       OSM      H15A     HL       0.250000       1.00800           0
      2646 MEMB     23       OSM      H15B     HL       0.250000       1.00800           0
      2647 MEMB     23       OSM      H15C     HL       0.250000       1.00800           0
      2648 MEMB     23       OSM      C14      CTL5    -0.350000       12.0110           0
      2649 MEMB     23       OSM      H14A     HL       0.250000       1.00800           0
      2650 MEMB     23       OSM      H14B     HL       0.250000       1.00800           0
      2651 MEMB     23       OSM      H14C     HL       0.250000       1.00800           0
      2652 MEMB     23       OSM      C13      CTL5    -0.350000       12.0110           0
      2653 MEMB     23       OSM      H13A     HL       0.250000       1.00800           0
      2654 MEMB     23       OSM      H13B     HL       0.250000       1.00800           0
      2655 MEMB     23       OSM      H13C     HL       0.250000       1.00800           0
      2656 MEMB     23       OSM      C12      CTL2    -0.100000       12.0110           0
      2657 MEMB     23       OSM      H12A     HL       0.250000       1.00800           0
      2658 MEMB     23       OSM      H12B     HL       0.250000       1.00800           0
      2659 MEMB     23       OSM      C11      CTL2    -0.800000E-01   12.0110           0
      2660 MEMB     23       OSM      H11A     HAL2     0.900000E-01   1.00800           0
      2661 MEMB     23       OSM      H11B     HAL2     0.900000E-01   1.00800           0
      2662 MEMB     23       OSM      P        PL        1.50000       30.9740           0
      2663 MEMB     23       OSM      O13      O2L     -0.780000       15.9994           0
      2664 MEMB     23       OSM      O14      O2L     -0.780000       15.9994           0
      2665 MEMB     23       OSM      O11      OSLP    -0.570000       15.9994           0
      2666 MEMB     23       OSM      O12      OSLP    -0.570000       15.9994           0
      2667 MEMB     23       OSM      C1S      CTL2    -0.800000E-01   12.0110           0
      2668 MEMB     23       OSM      H1S      HAL2     0.900000E-01   1.00800           0
      2669 MEMB     23       OSM      H1T      HAL2     0.900000E-01   1.00800           0
      2670 MEMB     23       OSM      NF       NHL     -0.700000       14.0070           0
      2671 MEMB     23       OSM      HNF      H        0.350000       1.00800           0
      2672 MEMB     23       OSM      C2S      CTL1     0.300000       12.0110           0
      2673 MEMB     23       OSM      H2S      HAL1     0.500000E-01   1.00800           0
      2674 MEMB     23       OSM      C3S      CTO1     0.500000       12.0110           0
      2675 MEMB     23       OSM      H3S      HAL1    -0.110000       1.00800           0
      2676 MEMB     23       OSM      O3       OHL     -0.690000       15.9994           0
      2677 MEMB     23       OSM      HO3      HOL      0.300000       1.00800           0
      2678 MEMB     23       OSM      C4S      CEL3    -0.150000       12.0110           0
      2679 MEMB     23       OSM      H4S      HEL1     0.150000       1.00800           0
      2680 MEMB     23       OSM      C5S      CEL3    -0.150000       12.0110           0
      2681 MEMB     23       OSM      H5S      HEL1     0.150000       1.00800           0
      2682 MEMB     23       OSM      C6S      CTL2    -0.180000       12.0110           0
      2683 MEMB     23       OSM      H6S      HAL2     0.900000E-01   1.00800           0
      2684 MEMB     23       OSM      H6T      HAL2     0.900000E-01   1.00800           0
      2685 MEMB     23       OSM      C7S      CTL2    -0.180000       12.0110           0
      2686 MEMB     23       OSM      H7S      HAL2     0.900000E-01   1.00800           0
      2687 MEMB     23       OSM      H7T      HAL2     0.900000E-01   1.00800           0
      2688 MEMB     23       OSM      C8S      CTL2    -0.180000       12.0110           0
      2689 MEMB     23       OSM      H8S      HAL2     0.900000E-01   1.00800           0
      2690 MEMB     23       OSM      H8T      HAL2     0.900000E-01   1.00800           0
      2691 MEMB     23       OSM      C9S      CTL2    -0.180000       12.0110           0
      2692 MEMB     23       OSM      H9S      HAL2     0.900000E-01   1.00800           0
      2693 MEMB     23       OSM      H9T      HAL2     0.900000E-01   1.00800           0
      2694 MEMB     23       OSM      C10S     CTL2    -0.180000       12.0110           0
      2695 MEMB     23       OSM      H10S     HAL2     0.900000E-01   1.00800           0
      2696 MEMB     23       OSM      H10T     HAL2     0.900000E-01   1.00800           0
      2697 MEMB     23       OSM      C11S     CTL2    -0.180000       12.0110           0
      2698 MEMB     23       OSM      H11S     HAL2     0.900000E-01   1.00800           0
      2699 MEMB     23       OSM      H11T     HAL2     0.900000E-01   1.00800           0
      2700 MEMB     23       OSM      C12S     CTL2    -0.180000       12.0110           0
      2701 MEMB     23       OSM      H12S     HAL2     0.900000E-01   1.00800           0
      2702 MEMB     23       OSM      H12T     HAL2     0.900000E-01   1.00800           0
      2703 MEMB     23       OSM      C13S     CTL2    -0.180000       12.0110           0
      2704 MEMB     23       OSM      H13S     HAL2     0.900000E-01   1.00800           0
      2705 MEMB     23       OSM      H13T     HAL2     0.900000E-01   1.00800           0
      2706 MEMB     23       OSM      C14S     CTL2    -0.180000       12.0110           0
      2707 MEMB     23       OSM      H14S     HAL2     0.900000E-01   1.00800           0
      2708 MEMB     23       OSM      H14T     HAL2     0.900000E-01   1.00800           0
      2709 MEMB     23       OSM      C15S     CTL2    -0.180000       12.0110           0
      2710 MEMB     23       OSM      H15S     HAL2     0.900000E-01   1.00800           0
      2711 MEMB     23       OSM      H15T     HAL2     0.900000E-01   1.00800           0
      2712 MEMB     23       OSM      C16S     CTL2    -0.180000       12.0110           0
      2713 MEMB     23       OSM      H16S     HAL2     0.900000E-01   1.00800           0
      2714 MEMB     23       OSM      H16T     HAL2     0.900000E-01   1.00800           0
      2715 MEMB     23       OSM      C17S     CTL2    -0.180000       12.0110           0
      2716 MEMB     23       OSM      H17S     HAL2     0.900000E-01   1.00800           0
      2717 MEMB     23       OSM      H17T     HAL2     0.900000E-01   1.00800           0
      2718 MEMB     23       OSM      C18S     CTL3    -0.270000       12.0110           0
      2719 MEMB     23       OSM      H18S     HAL3     0.900000E-01   1.00800           0
      2720 MEMB     23       OSM      H18T     HAL3     0.900000E-01   1.00800           0
      2721 MEMB     23       OSM      H18U     HAL3     0.900000E-01   1.00800           0
      2722 MEMB     23       OSM      C1F      C        0.550000       12.0110           0
      2723 MEMB     23       OSM      OF       O       -0.600000       15.9994           0
      2724 MEMB     23       OSM      C2F      CTL2    -0.700000E-01   12.0110           0
      2725 MEMB     23       OSM      H2F      HAL2     0.600000E-01   1.00800           0
      2726 MEMB     23       OSM      H2G      HAL2     0.600000E-01   1.00800           0
      2727 MEMB     23       OSM      C3F      CTL2    -0.180000       12.0110           0
      2728 MEMB     23       OSM      H3F      HAL2     0.900000E-01   1.00800           0
      2729 MEMB     23       OSM      H3G      HAL2     0.900000E-01   1.00800           0
      2730 MEMB     23       OSM      C4F      CTL2    -0.180000       12.0110           0
      2731 MEMB     23       OSM      H4F      HAL2     0.900000E-01   1.00800           0
      2732 MEMB     23       OSM      H4G      HAL2     0.900000E-01   1.00800           0
      2733 MEMB     23       OSM      C5F      CTL2    -0.180000       12.0110           0
      2734 MEMB     23       OSM      H5F      HAL2     0.900000E-01   1.00800           0
      2735 MEMB     23       OSM      H5G      HAL2     0.900000E-01   1.00800           0
      2736 MEMB     23       OSM      C6F      CTL2    -0.180000       12.0110           0
      2737 MEMB     23       OSM      H6F      HAL2     0.900000E-01   1.00800           0
      2738 MEMB     23       OSM      H6G      HAL2     0.900000E-01   1.00800           0
      2739 MEMB     23       OSM      C7F      CTL2    -0.180000       12.0110           0
      2740 MEMB     23       OSM      H7F      HAL2     0.900000E-01   1.00800           0
      2741 MEMB     23       OSM      H7G      HAL2     0.900000E-01   1.00800           0
      2742 MEMB     23       OSM      C8F      CTL2    -0.180000       12.0110           0
      2743 MEMB     23       OSM      H8F      HAL2     0.900000E-01   1.00800           0
      2744 MEMB     23       OSM      H8G      HAL2     0.900000E-01   1.00800           0
      2745 MEMB     23       OSM      C9F      CEL1    -0.150000       12.0110           0
      2746 MEMB     23       OSM      H9F      HEL1     0.150000       1.00800           0
      2747 MEMB     23       OSM      C10F     CEL1    -0.150000       12.0110           0
      2748 MEMB     23       OSM      H10F     HEL1     0.150000       1.00800           0
      2749 MEMB     23       OSM      C11F     CTL2    -0.180000       12.0110           0
      2750 MEMB     23       OSM      H11F     HAL2     0.900000E-01   1.00800           0
      2751 MEMB     23       OSM      H11G     HAL2     0.900000E-01   1.00800           0
      2752 MEMB     23       OSM      C12F     CTL2    -0.180000       12.0110           0
      2753 MEMB     23       OSM      H12F     HAL2     0.900000E-01   1.00800           0
      2754 MEMB     23       OSM      H12G     HAL2     0.900000E-01   1.00800           0
      2755 MEMB     23       OSM      C13F     CTL2    -0.180000       12.0110           0
      2756 MEMB     23       OSM      H13F     HAL2     0.900000E-01   1.00800           0
      2757 MEMB     23       OSM      H13G     HAL2     0.900000E-01   1.00800           0
      2758 MEMB     23       OSM      C14F     CTL2    -0.180000       12.0110           0
      2759 MEMB     23       OSM      H14F     HAL2     0.900000E-01   1.00800           0
      2760 MEMB     23       OSM      H14G     HAL2     0.900000E-01   1.00800           0
      2761 MEMB     23       OSM      C15F     CTL2    -0.180000       12.0110           0
      2762 MEMB     23       OSM      H15F     HAL2     0.900000E-01   1.00800           0
      2763 MEMB     23       OSM      H15G     HAL2     0.900000E-01   1.00800           0
      2764 MEMB     23       OSM      C16F     CTL2    -0.180000       12.0110           0
      2765 MEMB     23       OSM      H16F     HAL2     0.900000E-01   1.00800           0
      2766 MEMB     23       OSM      H16G     HAL2     0.900000E-01   1.00800           0
      2767 MEMB     23       OSM      C17F     CTL2    -0.180000       12.0110           0
      2768 MEMB     23       OSM      H17F     HAL2     0.900000E-01   1.00800           0
      2769 MEMB     23       OSM      H17G     HAL2     0.900000E-01   1.00800           0
      2770 MEMB     23       OSM      C18F     CTL3    -0.270000       12.0110           0
      2771 MEMB     23       OSM      H18F     HAL3     0.900000E-01   1.00800           0
      2772 MEMB     23       OSM      H18G     HAL3     0.900000E-01   1.00800           0
      2773 MEMB     23       OSM      H18H     HAL3     0.900000E-01   1.00800           0
      2774 MEMB     24       CHL1     C3       CRL1     0.140000       12.0110           0
      2775 MEMB     24       CHL1     H3       HGA1     0.900000E-01   1.00800           0
      2776 MEMB     24       CHL1     O3       OHL     -0.660000       15.9994           0
      2777 MEMB     24       CHL1     H3'      HOL      0.430000       1.00800           0
      2778 MEMB     24       CHL1     C4       CRL2    -0.180000       12.0110           0
      2779 MEMB     24       CHL1     H4A      HGA2     0.900000E-01   1.00800           0
      2780 MEMB     24       CHL1     H4B      HGA2     0.900000E-01   1.00800           0
      2781 MEMB     24       CHL1     C5       CEL1      0.00000       12.0110           0
      2782 MEMB     24       CHL1     C6       CEL1    -0.150000       12.0110           0
      2783 MEMB     24       CHL1     H6       HEL1     0.150000       1.00800           0
      2784 MEMB     24       CHL1     C7       CRL2    -0.180000       12.0110           0
      2785 MEMB     24       CHL1     H7A      HGA2     0.900000E-01   1.00800           0
      2786 MEMB     24       CHL1     H7B      HGA2     0.900000E-01   1.00800           0
      2787 MEMB     24       CHL1     C8       CRL1    -0.900000E-01   12.0110           0
      2788 MEMB     24       CHL1     H8       HGA1     0.900000E-01   1.00800           0
      2789 MEMB     24       CHL1     C14      CRL1    -0.900000E-01   12.0110           0
      2790 MEMB     24       CHL1     H14      HGA1     0.900000E-01   1.00800           0
      2791 MEMB     24       CHL1     C15      CRL2    -0.180000       12.0110           0
      2792 MEMB     24       CHL1     H15A     HGA2     0.900000E-01   1.00800           0
      2793 MEMB     24       CHL1     H15B     HGA2     0.900000E-01   1.00800           0
      2794 MEMB     24       CHL1     C16      CRL2    -0.180000       12.0110           0
      2795 MEMB     24       CHL1     H16A     HGA2     0.900000E-01   1.00800           0
      2796 MEMB     24       CHL1     H16B     HGA2     0.900000E-01   1.00800           0
      2797 MEMB     24       CHL1     C17      CRL1    -0.900000E-01   12.0110           0
      2798 MEMB     24       CHL1     H17      HGA1     0.900000E-01   1.00800           0
      2799 MEMB     24       CHL1     C13      CRL1      0.00000       12.0110           0
      2800 MEMB     24       CHL1     C18      CTL3    -0.270000       12.0110           0
      2801 MEMB     24       CHL1     H18A     HAL3     0.900000E-01   1.00800           0
      2802 MEMB     24       CHL1     H18B     HAL3     0.900000E-01   1.00800           0
      2803 MEMB     24       CHL1     H18C     HAL3     0.900000E-01   1.00800           0
      2804 MEMB     24       CHL1     C12      CRL2    -0.180000       12.0110           0
      2805 MEMB     24       CHL1     H12A     HGA2     0.900000E-01   1.00800           0
      2806 MEMB     24       CHL1     H12B     HGA2     0.900000E-01   1.00800           0
      2807 MEMB     24       CHL1     C11      CRL2    -0.180000       12.0110           0
      2808 MEMB     24       CHL1     H11A     HGA2     0.900000E-01   1.00800           0
      2809 MEMB     24       CHL1     H11B     HGA2     0.900000E-01   1.00800           0
      2810 MEMB     24       CHL1     C9       CRL1    -0.900000E-01   12.0110           0
      2811 MEMB     24       CHL1     H9       HGA1     0.900000E-01   1.00800           0
      2812 MEMB     24       CHL1     C10      CRL1      0.00000       12.0110           0
      2813 MEMB     24       CHL1     C19      CTL3    -0.270000       12.0110           0
      2814 MEMB     24       CHL1     H19A     HAL3     0.900000E-01   1.00800           0
      2815 MEMB     24       CHL1     H19B     HAL3     0.900000E-01   1.00800           0
      2816 MEMB     24       CHL1     H19C     HAL3     0.900000E-01   1.00800           0
      2817 MEMB     24       CHL1     C1       CRL2    -0.180000       12.0110           0
      2818 MEMB     24       CHL1     H1A      HGA2     0.900000E-01   1.00800           0
      2819 MEMB     24       CHL1     H1B      HGA2     0.900000E-01   1.00800           0
      2820 MEMB     24       CHL1     C2       CRL2    -0.180000       12.0110           0
      2821 MEMB     24       CHL1     H2A      HGA2     0.900000E-01   1.00800           0
      2822 MEMB     24       CHL1     H2B      HGA2     0.900000E-01   1.00800           0
      2823 MEMB     24       CHL1     C20      CTL1    -0.900000E-01   12.0110           0
      2824 MEMB     24       CHL1     H20      HAL1     0.900000E-01   1.00800           0
      2825 MEMB     24       CHL1     C21      CTL3    -0.270000       12.0110           0
      2826 MEMB     24       CHL1     H21A     HAL3     0.900000E-01   1.00800           0
      2827 MEMB     24       CHL1     H21B     HAL3     0.900000E-01   1.00800           0
      2828 MEMB     24       CHL1     H21C     HAL3     0.900000E-01   1.00800           0
      2829 MEMB     24       CHL1     C22      CTL2    -0.180000       12.0110           0
      2830 MEMB     24       CHL1     H22A     HAL2     0.900000E-01   1.00800           0
      2831 MEMB     24       CHL1     H22B     HAL2     0.900000E-01   1.00800           0
      2832 MEMB     24       CHL1     C23      CTL2    -0.180000       12.0110           0
      2833 MEMB     24       CHL1     H23A     HAL2     0.900000E-01   1.00800           0
      2834 MEMB     24       CHL1     H23B     HAL2     0.900000E-01   1.00800           0
      2835 MEMB     24       CHL1     C24      CTL2    -0.180000       12.0110           0
      2836 MEMB     24       CHL1     H24A     HAL2     0.900000E-01   1.00800           0
      2837 MEMB     24       CHL1     H24B     HAL2     0.900000E-01   1.00800           0
      2838 MEMB     24       CHL1     C25      CTL1    -0.900000E-01   12.0110           0
      2839 MEMB     24       CHL1     H25      HAL1     0.900000E-01   1.00800           0
      2840 MEMB     24       CHL1     C26      CTL3    -0.270000       12.0110           0
      2841 MEMB     24       CHL1     H26A     HAL3     0.900000E-01   1.00800           0
      2842 MEMB     24       CHL1     H26B     HAL3     0.900000E-01   1.00800           0
      2843 MEMB     24       CHL1     H26C     HAL3     0.900000E-01   1.00800           0
      2844 MEMB     24       CHL1     C27      CTL3    -0.270000       12.0110           0
      2845 MEMB     24       CHL1     H27A     HAL3     0.900000E-01   1.00800           0
      2846 MEMB     24       CHL1     H27B     HAL3     0.900000E-01   1.00800           0
      2847 MEMB     24       CHL1     H27C     HAL3     0.900000E-01   1.00800           0
      2848 MEMB     25       OSM      N        NTL     -0.600000       14.0070           0
      2849 MEMB     25       OSM      C15      CTL5    -0.350000       12.0110           0
      2850 MEMB     25       OSM      H15A     HL       0.250000       1.00800           0
      2851 MEMB     25       OSM      H15B     HL       0.250000       1.00800           0
      2852 MEMB     25       OSM      H15C     HL       0.250000       1.00800           0
      2853 MEMB     25       OSM      C14      CTL5    -0.350000       12.0110           0
      2854 MEMB     25       OSM      H14A     HL       0.250000       1.00800           0
      2855 MEMB     25       OSM      H14B     HL       0.250000       1.00800           0
      2856 MEMB     25       OSM      H14C     HL       0.250000       1.00800           0
      2857 MEMB     25       OSM      C13      CTL5    -0.350000       12.0110           0
      2858 MEMB     25       OSM      H13A     HL       0.250000       1.00800           0
      2859 MEMB     25       OSM      H13B     HL       0.250000       1.00800           0
      2860 MEMB     25       OSM      H13C     HL       0.250000       1.00800           0
      2861 MEMB     25       OSM      C12      CTL2    -0.100000       12.0110           0
      2862 MEMB     25       OSM      H12A     HL       0.250000       1.00800           0
      2863 MEMB     25       OSM      H12B     HL       0.250000       1.00800           0
      2864 MEMB     25       OSM      C11      CTL2    -0.800000E-01   12.0110           0
      2865 MEMB     25       OSM      H11A     HAL2     0.900000E-01   1.00800           0
      2866 MEMB     25       OSM      H11B     HAL2     0.900000E-01   1.00800           0
      2867 MEMB     25       OSM      P        PL        1.50000       30.9740           0
      2868 MEMB     25       OSM      O13      O2L     -0.780000       15.9994           0
      2869 MEMB     25       OSM      O14      O2L     -0.780000       15.9994           0
      2870 MEMB     25       OSM      O11      OSLP    -0.570000       15.9994           0
      2871 MEMB     25       OSM      O12      OSLP    -0.570000       15.9994           0
      2872 MEMB     25       OSM      C1S      CTL2    -0.800000E-01   12.0110           0
      2873 MEMB     25       OSM      H1S      HAL2     0.900000E-01   1.00800           0
      2874 MEMB     25       OSM      H1T      HAL2     0.900000E-01   1.00800           0
      2875 MEMB     25       OSM      NF       NHL     -0.700000       14.0070           0
      2876 MEMB     25       OSM      HNF      H        0.350000       1.00800           0
      2877 MEMB     25       OSM      C2S      CTL1     0.300000       12.0110           0
      2878 MEMB     25       OSM      H2S      HAL1     0.500000E-01   1.00800           0
      2879 MEMB     25       OSM      C3S      CTO1     0.500000       12.0110           0
      2880 MEMB     25       OSM      H3S      HAL1    -0.110000       1.00800           0
      2881 MEMB     25       OSM      O3       OHL     -0.690000       15.9994           0
      2882 MEMB     25       OSM      HO3      HOL      0.300000       1.00800           0
      2883 MEMB     25       OSM      C4S      CEL3    -0.150000       12.0110           0
      2884 MEMB     25       OSM      H4S      HEL1     0.150000       1.00800           0
      2885 MEMB     25       OSM      C5S      CEL3    -0.150000       12.0110           0
      2886 MEMB     25       OSM      H5S      HEL1     0.150000       1.00800           0
      2887 MEMB     25       OSM      C6S      CTL2    -0.180000       12.0110           0
      2888 MEMB     25       OSM      H6S      HAL2     0.900000E-01   1.00800           0
      2889 MEMB     25       OSM      H6T      HAL2     0.900000E-01   1.00800           0
      2890 MEMB     25       OSM      C7S      CTL2    -0.180000       12.0110           0
      2891 MEMB     25       OSM      H7S      HAL2     0.900000E-01   1.00800           0
      2892 MEMB     25       OSM      H7T      HAL2     0.900000E-01   1.00800           0
      2893 MEMB     25       OSM      C8S      CTL2    -0.180000       12.0110           0
      2894 MEMB     25       OSM      H8S      HAL2     0.900000E-01   1.00800           0
      2895 MEMB     25       OSM      H8T      HAL2     0.900000E-01   1.00800           0
      2896 MEMB     25       OSM      C9S      CTL2    -0.180000       12.0110           0
      2897 MEMB     25       OSM      H9S      HAL2     0.900000E-01   1.00800           0
      2898 MEMB     25       OSM      H9T      HAL2     0.900000E-01   1.00800           0
      2899 MEMB     25       OSM      C10S     CTL2    -0.180000       12.0110           0
      2900 MEMB     25       OSM      H10S     HAL2     0.900000E-01   1.00800           0
      2901 MEMB     25       OSM      H10T     HAL2     0.900000E-01   1.00800           0
      2902 MEMB     25       OSM      C11S     CTL2    -0.180000       12.0110           0
      2903 MEMB     25       OSM      H11S     HAL2     0.900000E-01   1.00800           0
      2904 MEMB     25       OSM      H11T     HAL2     0.900000E-01   1.00800           0
      2905 MEMB     25       OSM      C12S     CTL2    -0.180000       12.0110           0
      2906 MEMB     25       OSM      H12S     HAL2     0.900000E-01   1.00800           0
      2907 MEMB     25       OSM      H12T     HAL2     0.900000E-01   1.00800           0
      2908 MEMB     25       OSM      C13S     CTL2    -0.180000       12.0110           0
      2909 MEMB     25       OSM      H13S     HAL2     0.900000E-01   1.00800           0
      2910 MEMB     25       OSM      H13T     HAL2     0.900000E-01   1.00800           0
      2911 MEMB     25       OSM      C14S     CTL2    -0.180000       12.0110           0
      2912 MEMB     25       OSM      H14S     HAL2     0.900000E-01   1.00800           0
      2913 MEMB     25       OSM      H14T     HAL2     0.900000E-01   1.00800           0
      2914 MEMB     25       OSM      C15S     CTL2    -0.180000       12.0110           0
      2915 MEMB     25       OSM      H15S     HAL2     0.900000E-01   1.00800           0
      2916 MEMB     25       OSM      H15T     HAL2     0.900000E-01   1.00800           0
      2917 MEMB     25       OSM      C16S     CTL2    -0.180000       12.0110           0
      2918 MEMB     25       OSM      H16S     HAL2     0.900000E-01   1.00800           0
      2919 MEMB     25       OSM      H16T     HAL2     0.900000E-01   1.00800           0
      2920 MEMB     25       OSM      C17S     CTL2    -0.180000       12.0110           0
      2921 MEMB     25       OSM      H17S     HAL2     0.900000E-01   1.00800           0
      2922 MEMB     25       OSM      H17T     HAL2     0.900000E-01   1.00800           0
      2923 MEMB     25       OSM      C18S     CTL3    -0.270000       12.0110           0
      2924 MEMB     25       OSM      H18S     HAL3     0.900000E-01   1.00800           0
      2925 MEMB     25       OSM      H18T     HAL3     0.900000E-01   1.00800           0
      2926 MEMB     25       OSM      H18U     HAL3     0.900000E-01   1.00800           0
      2927 MEMB     25       OSM      C1F      C        0.550000       12.0110           0
      2928 MEMB     25       OSM      OF       O       -0.600000       15.9994           0
      2929 MEMB     25       OSM      C2F      CTL2    -0.700000E-01   12.0110           0
      2930 MEMB     25       OSM      H2F      HAL2     0.600000E-01   1.00800           0
      2931 MEMB     25       OSM      H2G      HAL2     0.600000E-01   1.00800           0
      2932 MEMB     25       OSM      C3F      CTL2    -0.180000       12.0110           0
      2933 MEMB     25       OSM      H3F      HAL2     0.900000E-01   1.00800           0
      2934 MEMB     25       OSM      H3G      HAL2     0.900000E-01   1.00800           0
      2935 MEMB     25       OSM      C4F      CTL2    -0.180000       12.0110           0
      2936 MEMB     25       OSM      H4F      HAL2     0.900000E-01   1.00800           0
      2937 MEMB     25       OSM      H4G      HAL2     0.900000E-01   1.00800           0
      2938 MEMB     25       OSM      C5F      CTL2    -0.180000       12.0110           0
      2939 MEMB     25       OSM      H5F      HAL2     0.900000E-01   1.00800           0
      2940 MEMB     25       OSM      H5G      HAL2     0.900000E-01   1.00800           0
      2941 MEMB     25       OSM      C6F      CTL2    -0.180000       12.0110           0
      2942 MEMB     25       OSM      H6F      HAL2     0.900000E-01   1.00800           0
      2943 MEMB     25       OSM      H6G      HAL2     0.900000E-01   1.00800           0
      2944 MEMB     25       OSM      C7F      CTL2    -0.180000       12.0110           0
      2945 MEMB     25       OSM      H7F      HAL2     0.900000E-01   1.00800           0
      2946 MEMB     25       OSM      H7G      HAL2     0.900000E-01   1.00800           0
      2947 MEMB     25       OSM      C8F      CTL2    -0.180000       12.0110           0
      2948 MEMB     25       OSM      H8F      HAL2     0.900000E-01   1.00800           0
      2949 MEMB     25       OSM      H8G      HAL2     0.900000E-01   1.00800           0
      2950 MEMB     25       OSM      C9F      CEL1    -0.150000       12.0110           0
      2951 MEMB     25       OSM      H9F      HEL1     0.150000       1.00800           0
      2952 MEMB     25       OSM      C10F     CEL1    -0.150000       12.0110           0
      2953 MEMB     25       OSM      H10F     HEL1     0.150000       1.00800           0
      2954 MEMB     25       OSM      C11F     CTL2    -0.180000       12.0110           0
      2955 MEMB     25       OSM      H11F     HAL2     0.900000E-01   1.00800           0
      2956 MEMB     25       OSM      H11G     HAL2     0.900000E-01   1.00800           0
      2957 MEMB     25       OSM      C12F     CTL2    -0.180000       12.0110           0
      2958 MEMB     25       OSM      H12F     HAL2     0.900000E-01   1.00800           0
      2959 MEMB     25       OSM      H12G     HAL2     0.900000E-01   1.00800           0
      2960 MEMB     25       OSM      C13F     CTL2    -0.180000       12.0110           0
      2961 MEMB     25       OSM      H13F     HAL2     0.900000E-01   1.00800           0
      2962 MEMB     25       OSM      H13G     HAL2     0.900000E-01   1.00800           0
      2963 MEMB     25       OSM      C14F     CTL2    -0.180000       12.0110           0
      2964 MEMB     25       OSM      H14F     HAL2     0.900000E-01   1.00800           0
      2965 MEMB     25       OSM      H14G     HAL2     0.900000E-01   1.00800           0
      2966 MEMB     25       OSM      C15F     CTL2    -0.180000       12.0110           0
      2967 MEMB     25       OSM      H15F     HAL2     0.900000E-01   1.00800           0
      2968 MEMB     25       OSM      H15G     HAL2     0.900000E-01   1.00800           0
      2969 MEMB     25       OSM      C16F     CTL2    -0.180000       12.0110           0
      2970 MEMB     25       OSM      H16F     HAL2     0.900000E-01   1.00800           0
      2971 MEMB     25       OSM      H16G     HAL2     0.900000E-01   1.00800           0
      2972 MEMB     25       OSM      C17F     CTL2    -0.180000       12.0110           0
      2973 MEMB     25       OSM      H17F     HAL2     0.900000E-01   1.00800           0
      2974 MEMB     25       OSM      H17G     HAL2     0.900000E-01   1.00800           0
      2975 MEMB     25       OSM      C18F     CTL3    -0.270000       12.0110           0
      2976 MEMB     25       OSM      H18F     HAL3     0.900000E-01   1.00800           0
      2977 MEMB     25       OSM      H18G     HAL3     0.900000E-01   1.00800           0
      2978 MEMB     25       OSM      H18H     HAL3     0.900000E-01   1.00800           0
      2979 MEMB     26       OSM      N        NTL     -0.600000       14.0070           0
      2980 MEMB     26       OSM      C15      CTL5    -0.350000       12.0110           0
      2981 MEMB     26       OSM      H15A     HL       0.250000       1.00800           0
      2982 MEMB     26       OSM      H15B     HL       0.250000       1.00800           0
      2983 MEMB     26       OSM      H15C     HL       0.250000       1.00800           0
      2984 MEMB     26       OSM      C14      CTL5    -0.350000       12.0110           0
      2985 MEMB     26       OSM      H14A     HL       0.250000       1.00800           0
      2986 MEMB     26       OSM      H14B     HL       0.250000       1.00800           0
      2987 MEMB     26       OSM      H14C     HL       0.250000       1.00800           0
      2988 MEMB     26       OSM      C13      CTL5    -0.350000       12.0110           0
      2989 MEMB     26       OSM      H13A     HL       0.250000       1.00800           0
      2990 MEMB     26       OSM      H13B     HL       0.250000       1.00800           0
      2991 MEMB     26       OSM      H13C     HL       0.250000       1.00800           0
      2992 MEMB     26       OSM      C12      CTL2    -0.100000       12.0110           0
      2993 MEMB     26       OSM      H12A     HL       0.250000       1.00800           0
      2994 MEMB     26       OSM      H12B     HL       0.250000       1.00800           0
      2995 MEMB     26       OSM      C11      CTL2    -0.800000E-01   12.0110           0
      2996 MEMB     26       OSM      H11A     HAL2     0.900000E-01   1.00800           0
      2997 MEMB     26       OSM      H11B     HAL2     0.900000E-01   1.00800           0
      2998 MEMB     26       OSM      P        PL        1.50000       30.9740           0
      2999 MEMB     26       OSM      O13      O2L     -0.780000       15.9994           0
      3000 MEMB     26       OSM      O14      O2L     -0.780000       15.9994           0
      3001 MEMB     26       OSM      O11      OSLP    -0.570000       15.9994           0
      3002 MEMB     26       OSM      O12      OSLP    -0.570000       15.9994           0
      3003 MEMB     26       OSM      C1S      CTL2    -0.800000E-01   12.0110           0
      3004 MEMB     26       OSM      H1S      HAL2     0.900000E-01   1.00800           0
      3005 MEMB     26       OSM      H1T      HAL2     0.900000E-01   1.00800           0
      3006 MEMB     26       OSM      NF       NHL     -0.700000       14.0070           0
      3007 MEMB     26       OSM      HNF      H        0.350000       1.00800           0
      3008 MEMB     26       OSM      C2S      CTL1     0.300000       12.0110           0
      3009 MEMB     26       OSM      H2S      HAL1     0.500000E-01   1.00800           0
      3010 MEMB     26       OSM      C3S      CTO1     0.500000       12.0110           0
      3011 MEMB     26       OSM      H3S      HAL1    -0.110000       1.00800           0
      3012 MEMB     26       OSM      O3       OHL     -0.690000       15.9994           0
      3013 MEMB     26       OSM      HO3      HOL      0.300000       1.00800           0
      3014 MEMB     26       OSM      C4S      CEL3    -0.150000       12.0110           0
      3015 MEMB     26       OSM      H4S      HEL1     0.150000       1.00800           0
      3016 MEMB     26       OSM      C5S      CEL3    -0.150000       12.0110           0
      3017 MEMB     26       OSM      H5S      HEL1     0.150000       1.00800           0
      3018 MEMB     26       OSM      C6S      CTL2    -0.180000       12.0110           0
      3019 MEMB     26       OSM      H6S      HAL2     0.900000E-01   1.00800           0
      3020 MEMB     26       OSM      H6T      HAL2     0.900000E-01   1.00800           0
      3021 MEMB     26       OSM      C7S      CTL2    -0.180000       12.0110           0
      3022 MEMB     26       OSM      H7S      HAL2     0.900000E-01   1.00800           0
      3023 MEMB     26       OSM      H7T      HAL2     0.900000E-01   1.00800           0
      3024 MEMB     26       OSM      C8S      CTL2    -0.180000       12.0110           0
      3025 MEMB     26       OSM      H8S      HAL2     0.900000E-01   1.00800           0
      3026 MEMB     26       OSM      H8T      HAL2     0.900000E-01   1.00800           0
      3027 MEMB     26       OSM      C9S      CTL2    -0.180000       12.0110           0
      3028 MEMB     26       OSM      H9S      HAL2     0.900000E-01   1.00800           0
      3029 MEMB     26       OSM      H9T      HAL2     0.900000E-01   1.00800           0
      3030 MEMB     26       OSM      C10S     CTL2    -0.180000       12.0110           0
      3031 MEMB     26       OSM      H10S     HAL2     0.900000E-01   1.00800           0
      3032 MEMB     26       OSM      H10T     HAL2     0.900000E-01   1.00800           0
      3033 MEMB     26       OSM      C11S     CTL2    -0.180000       12.0110           0
      3034 MEMB     26       OSM      H11S     HAL2     0.900000E-01   1.00800           0
      3035 MEMB     26       OSM      H11T     HAL2     0.900000E-01   1.00800           0
      3036 MEMB     26       OSM      C12S     CTL2    -0.180000       12.0110           0
      3037 MEMB     26       OSM      H12S     HAL2     0.900000E-01   1.00800           0
      3038 MEMB     26       OSM      H12T     HAL2     0.900000E-01   1.00800           0
      3039 MEMB     26       OSM      C13S     CTL2    -0.180000       12.0110           0
      3040 MEMB     26       OSM      H13S     HAL2     0.900000E-01   1.00800           0
      3041 MEMB     26       OSM      H13T     HAL2     0.900000E-01   1.00800           0
      3042 MEMB     26       OSM      C14S     CTL2    -0.180000       12.0110           0
      3043 MEMB     26       OSM      H14S     HAL2     0.900000E-01   1.00800           0
      3044 MEMB     26       OSM      H14T     HAL2     0.900000E-01   1.00800           0
      3045 MEMB     26       OSM      C15S     CTL2    -0.180000       12.0110           0
      3046 MEMB     26       OSM      H15S     HAL2     0.900000E-01   1.00800           0
      3047 MEMB     26       OSM      H15T     HAL2     0.900000E-01   1.00800           0
      3048 MEMB     26       OSM      C16S     CTL2    -0.180000       12.0110           0
      3049 MEMB     26       OSM      H16S     HAL2     0.900000E-01   1.00800           0
      3050 MEMB     26       OSM      H16T     HAL2     0.900000E-01   1.00800           0
      3051 MEMB     26       OSM      C17S     CTL2    -0.180000       12.0110           0
      3052 MEMB     26       OSM      H17S     HAL2     0.900000E-01   1.00800           0
      3053 MEMB     26       OSM      H17T     HAL2     0.900000E-01   1.00800           0
      3054 MEMB     26       OSM      C18S     CTL3    -0.270000       12.0110           0
      3055 MEMB     26       OSM      H18S     HAL3     0.900000E-01   1.00800           0
      3056 MEMB     26       OSM      H18T     HAL3     0.900000E-01   1.00800           0
      3057 MEMB     26       OSM      H18U     HAL3     0.900000E-01   1.00800           0
      3058 MEMB     26       OSM      C1F      C        0.550000       12.0110           0
      3059 MEMB     26       OSM      OF       O       -0.600000       15.9994           0
      3060 MEMB     26       OSM      C2F      CTL2    -0.700000E-01   12.0110           0
      3061 MEMB     26       OSM      H2F      HAL2     0.600000E-01   1.00800           0
      3062 MEMB     26       OSM      H2G      HAL2     0.600000E-01   1.00800           0
      3063 MEMB     26       OSM      C3F      CTL2    -0.180000       12.0110           0
      3064 MEMB     26       OSM      H3F      HAL2     0.900000E-01   1.00800           0
      3065 MEMB     26       OSM      H3G      HAL2     0.900000E-01   1.00800           0
      3066 MEMB     26       OSM      C4F      CTL2    -0.180000       12.0110           0
      3067 MEMB     26       OSM      H4F      HAL2     0.900000E-01   1.00800           0
      3068 MEMB     26       OSM      H4G      HAL2     0.900000E-01   1.00800           0
      3069 MEMB     26       OSM      C5F      CTL2    -0.180000       12.0110           0
      3070 MEMB     26       OSM      H5F      HAL2     0.900000E-01   1.00800           0
      3071 MEMB     26       OSM      H5G      HAL2     0.900000E-01   1.00800           0
      3072 MEMB     26       OSM      C6F      CTL2    -0.180000       12.0110           0
      3073 MEMB     26       OSM      H6F      HAL2     0.900000E-01   1.00800           0
      3074 MEMB     26       OSM      H6G      HAL2     0.900000E-01   1.00800           0
      3075 MEMB     26       OSM      C7F      CTL2    -0.180000       12.0110           0
      3076 MEMB     26       OSM      H7F      HAL2     0.900000E-01   1.00800           0
      3077 MEMB     26       OSM      H7G      HAL2     0.900000E-01   1.00800           0
      3078 MEMB     26       OSM      C8F      CTL2    -0.180000       12.0110           0
      3079 MEMB     26       OSM      H8F      HAL2     0.900000E-01   1.00800           0
      3080 MEMB     26       OSM      H8G      HAL2     0.900000E-01   1.00800           0
      3081 MEMB     26       OSM      C9F      CEL1    -0.150000       12.0110           0
      3082 MEMB     26       OSM      H9F      HEL1     0.150000       1.00800           0
      3083 MEMB     26       OSM      C10F     CEL1    -0.150000       12.0110           0
      3084 MEMB     26       OSM      H10F     HEL1     0.150000       1.00800           0
      3085 MEMB     26       OSM      C11F     CTL2    -0.180000       12.0110           0
      3086 MEMB     26       OSM      H11F     HAL2     0.900000E-01   1.00800           0
      3087 MEMB     26       OSM      H11G     HAL2     0.900000E-01   1.00800           0
      3088 MEMB     26       OSM      C12F     CTL2    -0.180000       12.0110           0
      3089 MEMB     26       OSM      H12F     HAL2     0.900000E-01   1.00800           0
      3090 MEMB     26       OSM      H12G     HAL2     0.900000E-01   1.00800           0
      3091 MEMB     26       OSM      C13F     CTL2    -0.180000       12.0110           0
      3092 MEMB     26       OSM      H13F     HAL2     0.900000E-01   1.00800           0
      3093 MEMB     26       OSM      H13G     HAL2     0.900000E-01   1.00800           0
      3094 MEMB     26       OSM      C14F     CTL2    -0.180000       12.0110           0
      3095 MEMB     26       OSM      H14F     HAL2     0.900000E-01   1.00800           0
      3096 MEMB     26       OSM      H14G     HAL2     0.900000E-01   1.00800           0
      3097 MEMB     26       OSM      C15F     CTL2    -0.180000       12.0110           0
      3098 MEMB     26       OSM      H15F     HAL2     0.900000E-01   1.00800           0
      3099 MEMB     26       OSM      H15G     HAL2     0.900000E-01   1.00800           0
      3100 MEMB     26       OSM      C16F     CTL2    -0.180000       12.0110           0
      3101 MEMB     26       OSM      H16F     HAL2     0.900000E-01   1.00800           0
      3102 MEMB     26       OSM      H16G     HAL2     0.900000E-01   1.00800           0
      3103 MEMB     26       OSM      C17F     CTL2    -0.180000       12.0110           0
      3104 MEMB     26       OSM      H17F     HAL2     0.900000E-01   1.00800           0
      3105 MEMB     26       OSM      H17G     HAL2     0.900000E-01   1.00800           0
      3106 MEMB     26       OSM      C18F     CTL3    -0.270000       12.0110           0
      3107 MEMB     26       OSM      H18F     HAL3     0.900000E-01   1.00800           0
      3108 MEMB     26       OSM      H18G     HAL3     0.900000E-01   1.00800           0
      3109 MEMB     26       OSM      H18H     HAL3     0.900000E-01   1.00800           0
      3110 MEMB     27       SOPE     N        NH3L    -0.300000       14.0070           0
      3111 MEMB     27       SOPE     HN1      HCL      0.330000       1.00800           0
      3112 MEMB     27       SOPE     HN2      HCL      0.330000       1.00800           0
      3113 MEMB     27       SOPE     HN3      HCL      0.330000       1.00800           0
      3114 MEMB     27       SOPE     C12      CTL2     0.130000       12.0110           0
      3115 MEMB     27       SOPE     H12A     HAL2     0.900000E-01   1.00800           0
      3116 MEMB     27       SOPE     H12B     HAL2     0.900000E-01   1.00800           0
      3117 MEMB     27       SOPE     C11      CTL2    -0.800000E-01   12.0110           0
      3118 MEMB     27       SOPE     H11A     HAL2     0.900000E-01   1.00800           0
      3119 MEMB     27       SOPE     H11B     HAL2     0.900000E-01   1.00800           0
      3120 MEMB     27       SOPE     P        PL        1.50000       30.9740           0
      3121 MEMB     27       SOPE     O13      O2L     -0.780000       15.9994           0
      3122 MEMB     27       SOPE     O14      O2L     -0.780000       15.9994           0
      3123 MEMB     27       SOPE     O12      OSLP    -0.570000       15.9994           0
      3124 MEMB     27       SOPE     O11      OSLP    -0.570000       15.9994           0
      3125 MEMB     27       SOPE     C1       CTL2    -0.800000E-01   12.0110           0
      3126 MEMB     27       SOPE     HA       HAL2     0.900000E-01   1.00800           0
      3127 MEMB     27       SOPE     HB       HAL2     0.900000E-01   1.00800           0
      3128 MEMB     27       SOPE     C2       CTL1     0.170000       12.0110           0
      3129 MEMB     27       SOPE     HS       HAL1     0.900000E-01   1.00800           0
      3130 MEMB     27       SOPE     O21      OSL     -0.490000       15.9994           0
      3131 MEMB     27       SOPE     C21      CL       0.900000       12.0110           0
      3132 MEMB     27       SOPE     O22      OBL     -0.630000       15.9994           0
      3133 MEMB     27       SOPE     C22      CTL2    -0.220000       12.0110           0
      3134 MEMB     27       SOPE     H2R      HAL2     0.900000E-01   1.00800           0
      3135 MEMB     27       SOPE     H2S      HAL2     0.900000E-01   1.00800           0
      3136 MEMB     27       SOPE     C3       CTL2     0.800000E-01   12.0110           0
      3137 MEMB     27       SOPE     HX       HAL2     0.900000E-01   1.00800           0
      3138 MEMB     27       SOPE     HY       HAL2     0.900000E-01   1.00800           0
      3139 MEMB     27       SOPE     O31      OSL     -0.490000       15.9994           0
      3140 MEMB     27       SOPE     C31      CL       0.900000       12.0110           0
      3141 MEMB     27       SOPE     O32      OBL     -0.630000       15.9994           0
      3142 MEMB     27       SOPE     C32      CTL2    -0.220000       12.0110           0
      3143 MEMB     27       SOPE     H2X      HAL2     0.900000E-01   1.00800           0
      3144 MEMB     27       SOPE     H2Y      HAL2     0.900000E-01   1.00800           0
      3145 MEMB     27       SOPE     C23      CTL2    -0.180000       12.0110           0
      3146 MEMB     27       SOPE     H3R      HAL2     0.900000E-01   1.00800           0
      3147 MEMB     27       SOPE     H3S      HAL2     0.900000E-01   1.00800           0
      3148 MEMB     27       SOPE     C24      CTL2    -0.180000       12.0110           0
      3149 MEMB     27       SOPE     H4R      HAL2     0.900000E-01   1.00800           0
      3150 MEMB     27       SOPE     H4S      HAL2     0.900000E-01   1.00800           0
      3151 MEMB     27       SOPE     C25      CTL2    -0.180000       12.0110           0
      3152 MEMB     27       SOPE     H5R      HAL2     0.900000E-01   1.00800           0
      3153 MEMB     27       SOPE     H5S      HAL2     0.900000E-01   1.00800           0
      3154 MEMB     27       SOPE     C26      CTL2    -0.180000       12.0110           0
      3155 MEMB     27       SOPE     H6R      HAL2     0.900000E-01   1.00800           0
      3156 MEMB     27       SOPE     H6S      HAL2     0.900000E-01   1.00800           0
      3157 MEMB     27       SOPE     C27      CTL2    -0.180000       12.0110           0
      3158 MEMB     27       SOPE     H7R      HAL2     0.900000E-01   1.00800           0
      3159 MEMB     27       SOPE     H7S      HAL2     0.900000E-01   1.00800           0
      3160 MEMB     27       SOPE     C28      CTL2    -0.180000       12.0110           0
      3161 MEMB     27       SOPE     H8R      HAL2     0.900000E-01   1.00800           0
      3162 MEMB     27       SOPE     H8S      HAL2     0.900000E-01   1.00800           0
      3163 MEMB     27       SOPE     C29      CEL1    -0.150000       12.0110           0
      3164 MEMB     27       SOPE     H91      HEL1     0.150000       1.00800           0
      3165 MEMB     27       SOPE     C210     CEL1    -0.150000       12.0110           0
      3166 MEMB     27       SOPE     H101     HEL1     0.150000       1.00800           0
      3167 MEMB     27       SOPE     C211     CTL2    -0.180000       12.0110           0
      3168 MEMB     27       SOPE     H11R     HAL2     0.900000E-01   1.00800           0
      3169 MEMB     27       SOPE     H11S     HAL2     0.900000E-01   1.00800           0
      3170 MEMB     27       SOPE     C212     CTL2    -0.180000       12.0110           0
      3171 MEMB     27       SOPE     H12R     HAL2     0.900000E-01   1.00800           0
      3172 MEMB     27       SOPE     H12S     HAL2     0.900000E-01   1.00800           0
      3173 MEMB     27       SOPE     C213     CTL2    -0.180000       12.0110           0
      3174 MEMB     27       SOPE     H13R     HAL2     0.900000E-01   1.00800           0
      3175 MEMB     27       SOPE     H13S     HAL2     0.900000E-01   1.00800           0
      3176 MEMB     27       SOPE     C214     CTL2    -0.180000       12.0110           0
      3177 MEMB     27       SOPE     H14R     HAL2     0.900000E-01   1.00800           0
      3178 MEMB     27       SOPE     H14S     HAL2     0.900000E-01   1.00800           0
      3179 MEMB     27       SOPE     C215     CTL2    -0.180000       12.0110           0
      3180 MEMB     27       SOPE     H15R     HAL2     0.900000E-01   1.00800           0
      3181 MEMB     27       SOPE     H15S     HAL2     0.900000E-01   1.00800           0
      3182 MEMB     27       SOPE     C216     CTL2    -0.180000       12.0110           0
      3183 MEMB     27       SOPE     H16R     HAL2     0.900000E-01   1.00800           0
      3184 MEMB     27       SOPE     H16S     HAL2     0.900000E-01   1.00800           0
      3185 MEMB     27       SOPE     C217     CTL2    -0.180000       12.0110           0
      3186 MEMB     27       SOPE     H17R     HAL2     0.900000E-01   1.00800           0
      3187 MEMB     27       SOPE     H17S     HAL2     0.900000E-01   1.00800           0
      3188 MEMB     27       SOPE     C218     CTL3    -0.270000       12.0110           0
      3189 MEMB     27       SOPE     H18R     HAL3     0.900000E-01   1.00800           0
      3190 MEMB     27       SOPE     H18S     HAL3     0.900000E-01   1.00800           0
      3191 MEMB     27       SOPE     H18T     HAL3     0.900000E-01   1.00800           0
      3192 MEMB     27       SOPE     C33      CTL2    -0.180000       12.0110           0
      3193 MEMB     27       SOPE     H3X      HAL2     0.900000E-01   1.00800           0
      3194 MEMB     27       SOPE     H3Y      HAL2     0.900000E-01   1.00800           0
      3195 MEMB     27       SOPE     C34      CTL2    -0.180000       12.0110           0
      3196 MEMB     27       SOPE     H4X      HAL2     0.900000E-01   1.00800           0
      3197 MEMB     27       SOPE     H4Y      HAL2     0.900000E-01   1.00800           0
      3198 MEMB     27       SOPE     C35      CTL2    -0.180000       12.0110           0
      3199 MEMB     27       SOPE     H5X      HAL2     0.900000E-01   1.00800           0
      3200 MEMB     27       SOPE     H5Y      HAL2     0.900000E-01   1.00800           0
      3201 MEMB     27       SOPE     C36      CTL2    -0.180000       12.0110           0
      3202 MEMB     27       SOPE     H6X      HAL2     0.900000E-01   1.00800           0
      3203 MEMB     27       SOPE     H6Y      HAL2     0.900000E-01   1.00800           0
      3204 MEMB     27       SOPE     C37      CTL2    -0.180000       12.0110           0
      3205 MEMB     27       SOPE     H7X      HAL2     0.900000E-01   1.00800           0
      3206 MEMB     27       SOPE     H7Y      HAL2     0.900000E-01   1.00800           0
      3207 MEMB     27       SOPE     C38      CTL2    -0.180000       12.0110           0
      3208 MEMB     27       SOPE     H8X      HAL2     0.900000E-01   1.00800           0
      3209 MEMB     27       SOPE     H8Y      HAL2     0.900000E-01   1.00800           0
      3210 MEMB     27       SOPE     C39      CTL2    -0.180000       12.0110           0
      3211 MEMB     27       SOPE     H9X      HAL2     0.900000E-01   1.00800           0
      3212 MEMB     27       SOPE     H9Y      HAL2     0.900000E-01   1.00800           0
      3213 MEMB     27       SOPE     C310     CTL2    -0.180000       12.0110           0
      3214 MEMB     27       SOPE     H10X     HAL2     0.900000E-01   1.00800           0
      3215 MEMB     27       SOPE     H10Y     HAL2     0.900000E-01   1.00800           0
      3216 MEMB     27       SOPE     C311     CTL2    -0.180000       12.0110           0
      3217 MEMB     27       SOPE     H11X     HAL2     0.900000E-01   1.00800           0
      3218 MEMB     27       SOPE     H11Y     HAL2     0.900000E-01   1.00800           0
      3219 MEMB     27       SOPE     C312     CTL2    -0.180000       12.0110           0
      3220 MEMB     27       SOPE     H12X     HAL2     0.900000E-01   1.00800           0
      3221 MEMB     27       SOPE     H12Y     HAL2     0.900000E-01   1.00800           0
      3222 MEMB     27       SOPE     C313     CTL2    -0.180000       12.0110           0
      3223 MEMB     27       SOPE     H13X     HAL2     0.900000E-01   1.00800           0
      3224 MEMB     27       SOPE     H13Y     HAL2     0.900000E-01   1.00800           0
      3225 MEMB     27       SOPE     C314     CTL2    -0.180000       12.0110           0
      3226 MEMB     27       SOPE     H14X     HAL2     0.900000E-01   1.00800           0
      3227 MEMB     27       SOPE     H14Y     HAL2     0.900000E-01   1.00800           0
      3228 MEMB     27       SOPE     C315     CTL2    -0.180000       12.0110           0
      3229 MEMB     27       SOPE     H15X     HAL2     0.900000E-01   1.00800           0
      3230 MEMB     27       SOPE     H15Y     HAL2     0.900000E-01   1.00800           0
      3231 MEMB     27       SOPE     C316     CTL2    -0.180000       12.0110           0
      3232 MEMB     27       SOPE     H16X     HAL2     0.900000E-01   1.00800           0
      3233 MEMB     27       SOPE     H16Y     HAL2     0.900000E-01   1.00800           0
      3234 MEMB     27       SOPE     C317     CTL2    -0.180000       12.0110           0
      3235 MEMB     27       SOPE     H17X     HAL2     0.900000E-01   1.00800           0
      3236 MEMB     27       SOPE     H17Y     HAL2     0.900000E-01   1.00800           0
      3237 MEMB     27       SOPE     C318     CTL3    -0.270000       12.0110           0
      3238 MEMB     27       SOPE     H18X     HAL3     0.900000E-01   1.00800           0
      3239 MEMB     27       SOPE     H18Y     HAL3     0.900000E-01   1.00800           0
      3240 MEMB     27       SOPE     H18Z     HAL3     0.900000E-01   1.00800           0
      3241 MEMB     28       OSM      N        NTL     -0.600000       14.0070           0
      3242 MEMB     28       OSM      C15      CTL5    -0.350000       12.0110           0
      3243 MEMB     28       OSM      H15A     HL       0.250000       1.00800           0
      3244 MEMB     28       OSM      H15B     HL       0.250000       1.00800           0
      3245 MEMB     28       OSM      H15C     HL       0.250000       1.00800           0
      3246 MEMB     28       OSM      C14      CTL5    -0.350000       12.0110           0
      3247 MEMB     28       OSM      H14A     HL       0.250000       1.00800           0
      3248 MEMB     28       OSM      H14B     HL       0.250000       1.00800           0
      3249 MEMB     28       OSM      H14C     HL       0.250000       1.00800           0
      3250 MEMB     28       OSM      C13      CTL5    -0.350000       12.0110           0
      3251 MEMB     28       OSM      H13A     HL       0.250000       1.00800           0
      3252 MEMB     28       OSM      H13B     HL       0.250000       1.00800           0
      3253 MEMB     28       OSM      H13C     HL       0.250000       1.00800           0
      3254 MEMB     28       OSM      C12      CTL2    -0.100000       12.0110           0
      3255 MEMB     28       OSM      H12A     HL       0.250000       1.00800           0
      3256 MEMB     28       OSM      H12B     HL       0.250000       1.00800           0
      3257 MEMB     28       OSM      C11      CTL2    -0.800000E-01   12.0110           0
      3258 MEMB     28       OSM      H11A     HAL2     0.900000E-01   1.00800           0
      3259 MEMB     28       OSM      H11B     HAL2     0.900000E-01   1.00800           0
      3260 MEMB     28       OSM      P        PL        1.50000       30.9740           0
      3261 MEMB     28       OSM      O13      O2L     -0.780000       15.9994           0
      3262 MEMB     28       OSM      O14      O2L     -0.780000       15.9994           0
      3263 MEMB     28       OSM      O11      OSLP    -0.570000       15.9994           0
      3264 MEMB     28       OSM      O12      OSLP    -0.570000       15.9994           0
      3265 MEMB     28       OSM      C1S      CTL2    -0.800000E-01   12.0110           0
      3266 MEMB     28       OSM      H1S      HAL2     0.900000E-01   1.00800           0
      3267 MEMB     28       OSM      H1T      HAL2     0.900000E-01   1.00800           0
      3268 MEMB     28       OSM      NF       NHL     -0.700000       14.0070           0
      3269 MEMB     28       OSM      HNF      H        0.350000       1.00800           0
      3270 MEMB     28       OSM      C2S      CTL1     0.300000       12.0110           0
      3271 MEMB     28       OSM      H2S      HAL1     0.500000E-01   1.00800           0
      3272 MEMB     28       OSM      C3S      CTO1     0.500000       12.0110           0
      3273 MEMB     28       OSM      H3S      HAL1    -0.110000       1.00800           0
      3274 MEMB     28       OSM      O3       OHL     -0.690000       15.9994           0
      3275 MEMB     28       OSM      HO3      HOL      0.300000       1.00800           0
      3276 MEMB     28       OSM      C4S      CEL3    -0.150000       12.0110           0
      3277 MEMB     28       OSM      H4S      HEL1     0.150000       1.00800           0
      3278 MEMB     28       OSM      C5S      CEL3    -0.150000       12.0110           0
      3279 MEMB     28       OSM      H5S      HEL1     0.150000       1.00800           0
      3280 MEMB     28       OSM      C6S      CTL2    -0.180000       12.0110           0
      3281 MEMB     28       OSM      H6S      HAL2     0.900000E-01   1.00800           0
      3282 MEMB     28       OSM      H6T      HAL2     0.900000E-01   1.00800           0
      3283 MEMB     28       OSM      C7S      CTL2    -0.180000       12.0110           0
      3284 MEMB     28       OSM      H7S      HAL2     0.900000E-01   1.00800           0
      3285 MEMB     28       OSM      H7T      HAL2     0.900000E-01   1.00800           0
      3286 MEMB     28       OSM      C8S      CTL2    -0.180000       12.0110           0
      3287 MEMB     28       OSM      H8S      HAL2     0.900000E-01   1.00800           0
      3288 MEMB     28       OSM      H8T      HAL2     0.900000E-01   1.00800           0
      3289 MEMB     28       OSM      C9S      CTL2    -0.180000       12.0110           0
      3290 MEMB     28       OSM      H9S      HAL2     0.900000E-01   1.00800           0
      3291 MEMB     28       OSM      H9T      HAL2     0.900000E-01   1.00800           0
      3292 MEMB     28       OSM      C10S     CTL2    -0.180000       12.0110           0
      3293 MEMB     28       OSM      H10S     HAL2     0.900000E-01   1.00800           0
      3294 MEMB     28       OSM      H10T     HAL2     0.900000E-01   1.00800           0
      3295 MEMB     28       OSM      C11S     CTL2    -0.180000       12.0110           0
      3296 MEMB     28       OSM      H11S     HAL2     0.900000E-01   1.00800           0
      3297 MEMB     28       OSM      H11T     HAL2     0.900000E-01   1.00800           0
      3298 MEMB     28       OSM      C12S     CTL2    -0.180000       12.0110           0
      3299 MEMB     28       OSM      H12S     HAL2     0.900000E-01   1.00800           0
      3300 MEMB     28       OSM      H12T     HAL2     0.900000E-01   1.00800           0
      3301 MEMB     28       OSM      C13S     CTL2    -0.180000       12.0110           0
      3302 MEMB     28       OSM      H13S     HAL2     0.900000E-01   1.00800           0
      3303 MEMB     28       OSM      H13T     HAL2     0.900000E-01   1.00800           0
      3304 MEMB     28       OSM      C14S     CTL2    -0.180000       12.0110           0
      3305 MEMB     28       OSM      H14S     HAL2     0.900000E-01   1.00800           0
      3306 MEMB     28       OSM      H14T     HAL2     0.900000E-01   1.00800           0
      3307 MEMB     28       OSM      C15S     CTL2    -0.180000       12.0110           0
      3308 MEMB     28       OSM      H15S     HAL2     0.900000E-01   1.00800           0
      3309 MEMB     28       OSM      H15T     HAL2     0.900000E-01   1.00800           0
      3310 MEMB     28       OSM      C16S     CTL2    -0.180000       12.0110           0
      3311 MEMB     28       OSM      H16S     HAL2     0.900000E-01   1.00800           0
      3312 MEMB     28       OSM      H16T     HAL2     0.900000E-01   1.00800           0
      3313 MEMB     28       OSM      C17S     CTL2    -0.180000       12.0110           0
      3314 MEMB     28       OSM      H17S     HAL2     0.900000E-01   1.00800           0
      3315 MEMB     28       OSM      H17T     HAL2     0.900000E-01   1.00800           0
      3316 MEMB     28       OSM      C18S     CTL3    -0.270000       12.0110           0
      3317 MEMB     28       OSM      H18S     HAL3     0.900000E-01   1.00800           0
      3318 MEMB     28       OSM      H18T     HAL3     0.900000E-01   1.00800           0
      3319 MEMB     28       OSM      H18U     HAL3     0.900000E-01   1.00800           0
      3320 MEMB     28       OSM      C1F      C        0.550000       12.0110           0
      3321 MEMB     28       OSM      OF       O       -0.600000       15.9994           0
      3322 MEMB     28       OSM      C2F      CTL2    -0.700000E-01   12.0110           0
      3323 MEMB     28       OSM      H2F      HAL2     0.600000E-01   1.00800           0
      3324 MEMB     28       OSM      H2G      HAL2     0.600000E-01   1.00800           0
      3325 MEMB     28       OSM      C3F      CTL2    -0.180000       12.0110           0
      3326 MEMB     28       OSM      H3F      HAL2     0.900000E-01   1.00800           0
      3327 MEMB     28       OSM      H3G      HAL2     0.900000E-01   1.00800           0
      3328 MEMB     28       OSM      C4F      CTL2    -0.180000       12.0110           0
      3329 MEMB     28       OSM      H4F      HAL2     0.900000E-01   1.00800           0
      3330 MEMB     28       OSM      H4G      HAL2     0.900000E-01   1.00800           0
      3331 MEMB     28       OSM      C5F      CTL2    -0.180000       12.0110           0
      3332 MEMB     28       OSM      H5F      HAL2     0.900000E-01   1.00800           0
      3333 MEMB     28       OSM      H5G      HAL2     0.900000E-01   1.00800           0
      3334 MEMB     28       OSM      C6F      CTL2    -0.180000       12.0110           0
      3335 MEMB     28       OSM      H6F      HAL2     0.900000E-01   1.00800           0
      3336 MEMB     28       OSM      H6G      HAL2     0.900000E-01   1.00800           0
      3337 MEMB     28       OSM      C7F      CTL2    -0.180000       12.0110           0
      3338 MEMB     28       OSM      H7F      HAL2     0.900000E-01   1.00800           0
      3339 MEMB     28       OSM      H7G      HAL2     0.900000E-01   1.00800           0
      3340 MEMB     28       OSM      C8F      CTL2    -0.180000       12.0110           0
      3341 MEMB     28       OSM      H8F      HAL2     0.900000E-01   1.00800           0
      3342 MEMB     28       OSM      H8G      HAL2     0.900000E-01   1.00800           0
      3343 MEMB     28       OSM      C9F      CEL1    -0.150000       12.0110           0
      3344 MEMB     28       OSM      H9F      HEL1     0.150000       1.00800           0
      3345 MEMB     28       OSM      C10F     CEL1    -0.150000       12.0110           0
      3346 MEMB     28       OSM      H10F     HEL1     0.150000       1.00800           0
      3347 MEMB     28       OSM      C11F     CTL2    -0.180000       12.0110           0
      3348 MEMB     28       OSM      H11F     HAL2     0.900000E-01   1.00800           0
      3349 MEMB     28       OSM      H11G     HAL2     0.900000E-01   1.00800           0
      3350 MEMB     28       OSM      C12F     CTL2    -0.180000       12.0110           0
      3351 MEMB     28       OSM      H12F     HAL2     0.900000E-01   1.00800           0
      3352 MEMB     28       OSM      H12G     HAL2     0.900000E-01   1.00800           0
      3353 MEMB     28       OSM      C13F     CTL2    -0.180000       12.0110           0
      3354 MEMB     28       OSM      H13F     HAL2     0.900000E-01   1.00800           0
      3355 MEMB     28       OSM      H13G     HAL2     0.900000E-01   1.00800           0
      3356 MEMB     28       OSM      C14F     CTL2    -0.180000       12.0110           0
      3357 MEMB     28       OSM      H14F     HAL2     0.900000E-01   1.00800           0
      3358 MEMB     28       OSM      H14G     HAL2     0.900000E-01   1.00800           0
      3359 MEMB     28       OSM      C15F     CTL2    -0.180000       12.0110           0
      3360 MEMB     28       OSM      H15F     HAL2     0.900000E-01   1.00800           0
      3361 MEMB     28       OSM      H15G     HAL2     0.900000E-01   1.00800           0
      3362 MEMB     28       OSM      C16F     CTL2    -0.180000       12.0110           0
      3363 MEMB     28       OSM      H16F     HAL2     0.900000E-01   1.00800           0
      3364 MEMB     28       OSM      H16G     HAL2     0.900000E-01   1.00800           0
      3365 MEMB     28       OSM      C17F     CTL2    -0.180000       12.0110           0
      3366 MEMB     28       OSM      H17F     HAL2     0.900000E-01   1.00800           0
      3367 MEMB     28       OSM      H17G     HAL2     0.900000E-01   1.00800           0
      3368 MEMB     28       OSM      C18F     CTL3    -0.270000       12.0110           0
      3369 MEMB     28       OSM      H18F     HAL3     0.900000E-01   1.00800           0
      3370 MEMB     28       OSM      H18G     HAL3     0.900000E-01   1.00800           0
      3371 MEMB     28       OSM      H18H     HAL3     0.900000E-01   1.00800           0
      3372 MEMB     29       OSM      N        NTL     -0.600000       14.0070           0
      3373 MEMB     29       OSM      C15      CTL5    -0.350000       12.0110           0
      3374 MEMB     29       OSM      H15A     HL       0.250000       1.00800           0
      3375 MEMB     29       OSM      H15B     HL       0.250000       1.00800           0
      3376 MEMB     29       OSM      H15C     HL       0.250000       1.00800           0
      3377 MEMB     29       OSM      C14      CTL5    -0.350000       12.0110           0
      3378 MEMB     29       OSM      H14A     HL       0.250000       1.00800           0
      3379 MEMB     29       OSM      H14B     HL       0.250000       1.00800           0
      3380 MEMB     29       OSM      H14C     HL       0.250000       1.00800           0
      3381 MEMB     29       OSM      C13      CTL5    -0.350000       12.0110           0
      3382 MEMB     29       OSM      H13A     HL       0.250000       1.00800           0
      3383 MEMB     29       OSM      H13B     HL       0.250000       1.00800           0
      3384 MEMB     29       OSM      H13C     HL       0.250000       1.00800           0
      3385 MEMB     29       OSM      C12      CTL2    -0.100000       12.0110           0
      3386 MEMB     29       OSM      H12A     HL       0.250000       1.00800           0
      3387 MEMB     29       OSM      H12B     HL       0.250000       1.00800           0
      3388 MEMB     29       OSM      C11      CTL2    -0.800000E-01   12.0110           0
      3389 MEMB     29       OSM      H11A     HAL2     0.900000E-01   1.00800           0
      3390 MEMB     29       OSM      H11B     HAL2     0.900000E-01   1.00800           0
      3391 MEMB     29       OSM      P        PL        1.50000       30.9740           0
      3392 MEMB     29       OSM      O13      O2L     -0.780000       15.9994           0
      3393 MEMB     29       OSM      O14      O2L     -0.780000       15.9994           0
      3394 MEMB     29       OSM      O11      OSLP    -0.570000       15.9994           0
      3395 MEMB     29       OSM      O12      OSLP    -0.570000       15.9994           0
      3396 MEMB     29       OSM      C1S      CTL2    -0.800000E-01   12.0110           0
      3397 MEMB     29       OSM      H1S      HAL2     0.900000E-01   1.00800           0
      3398 MEMB     29       OSM      H1T      HAL2     0.900000E-01   1.00800           0
      3399 MEMB     29       OSM      NF       NHL     -0.700000       14.0070           0
      3400 MEMB     29       OSM      HNF      H        0.350000       1.00800           0
      3401 MEMB     29       OSM      C2S      CTL1     0.300000       12.0110           0
      3402 MEMB     29       OSM      H2S      HAL1     0.500000E-01   1.00800           0
      3403 MEMB     29       OSM      C3S      CTO1     0.500000       12.0110           0
      3404 MEMB     29       OSM      H3S      HAL1    -0.110000       1.00800           0
      3405 MEMB     29       OSM      O3       OHL     -0.690000       15.9994           0
      3406 MEMB     29       OSM      HO3      HOL      0.300000       1.00800           0
      3407 MEMB     29       OSM      C4S      CEL3    -0.150000       12.0110           0
      3408 MEMB     29       OSM      H4S      HEL1     0.150000       1.00800           0
      3409 MEMB     29       OSM      C5S      CEL3    -0.150000       12.0110           0
      3410 MEMB     29       OSM      H5S      HEL1     0.150000       1.00800           0
      3411 MEMB     29       OSM      C6S      CTL2    -0.180000       12.0110           0
      3412 MEMB     29       OSM      H6S      HAL2     0.900000E-01   1.00800           0
      3413 MEMB     29       OSM      H6T      HAL2     0.900000E-01   1.00800           0
      3414 MEMB     29       OSM      C7S      CTL2    -0.180000       12.0110           0
      3415 MEMB     29       OSM      H7S      HAL2     0.900000E-01   1.00800           0
      3416 MEMB     29       OSM      H7T      HAL2     0.900000E-01   1.00800           0
      3417 MEMB     29       OSM      C8S      CTL2    -0.180000       12.0110           0
      3418 MEMB     29       OSM      H8S      HAL2     0.900000E-01   1.00800           0
      3419 MEMB     29       OSM      H8T      HAL2     0.900000E-01   1.00800           0
      3420 MEMB     29       OSM      C9S      CTL2    -0.180000       12.0110           0
      3421 MEMB     29       OSM      H9S      HAL2     0.900000E-01   1.00800           0
      3422 MEMB     29       OSM      H9T      HAL2     0.900000E-01   1.00800           0
      3423 MEMB     29       OSM      C10S     CTL2    -0.180000       12.0110           0
      3424 MEMB     29       OSM      H10S     HAL2     0.900000E-01   1.00800           0
      3425 MEMB     29       OSM      H10T     HAL2     0.900000E-01   1.00800           0
      3426 MEMB     29       OSM      C11S     CTL2    -0.180000       12.0110           0
      3427 MEMB     29       OSM      H11S     HAL2     0.900000E-01   1.00800           0
      3428 MEMB     29       OSM      H11T     HAL2     0.900000E-01   1.00800           0
      3429 MEMB     29       OSM      C12S     CTL2    -0.180000       12.0110           0
      3430 MEMB     29       OSM      H12S     HAL2     0.900000E-01   1.00800           0
      3431 MEMB     29       OSM      H12T     HAL2     0.900000E-01   1.00800           0
      3432 MEMB     29       OSM      C13S     CTL2    -0.180000       12.0110           0
      3433 MEMB     29       OSM      H13S     HAL2     0.900000E-01   1.00800           0
      3434 MEMB     29       OSM      H13T     HAL2     0.900000E-01   1.00800           0
      3435 MEMB     29       OSM      C14S     CTL2    -0.180000       12.0110           0
      3436 MEMB     29       OSM      H14S     HAL2     0.900000E-01   1.00800           0
      3437 MEMB     29       OSM      H14T     HAL2     0.900000E-01   1.00800           0
      3438 MEMB     29       OSM      C15S     CTL2    -0.180000       12.0110           0
      3439 MEMB     29       OSM      H15S     HAL2     0.900000E-01   1.00800           0
      3440 MEMB     29       OSM      H15T     HAL2     0.900000E-01   1.00800           0
      3441 MEMB     29       OSM      C16S     CTL2    -0.180000       12.0110           0
      3442 MEMB     29       OSM      H16S     HAL2     0.900000E-01   1.00800           0
      3443 MEMB     29       OSM      H16T     HAL2     0.900000E-01   1.00800           0
      3444 MEMB     29       OSM      C17S     CTL2    -0.180000       12.0110           0
      3445 MEMB     29       OSM      H17S     HAL2     0.900000E-01   1.00800           0
      3446 MEMB     29       OSM      H17T     HAL2     0.900000E-01   1.00800           0
      3447 MEMB     29       OSM      C18S     CTL3    -0.270000       12.0110           0
      3448 MEMB     29       OSM      H18S     HAL3     0.900000E-01   1.00800           0
      3449 MEMB     29       OSM      H18T     HAL3     0.900000E-01   1.00800           0
      3450 MEMB     29       OSM      H18U     HAL3     0.900000E-01   1.00800           0
      3451 MEMB     29       OSM      C1F      C        0.550000       12.0110           0
      3452 MEMB     29       OSM      OF       O       -0.600000       15.9994           0
      3453 MEMB     29       OSM      C2F      CTL2    -0.700000E-01   12.0110           0
      3454 MEMB     29       OSM      H2F      HAL2     0.600000E-01   1.00800           0
      3455 MEMB     29       OSM      H2G      HAL2     0.600000E-01   1.00800           0
      3456 MEMB     29       OSM      C3F      CTL2    -0.180000       12.0110           0
      3457 MEMB     29       OSM      H3F      HAL2     0.900000E-01   1.00800           0
      3458 MEMB     29       OSM      H3G      HAL2     0.900000E-01   1.00800           0
      3459 MEMB     29       OSM      C4F      CTL2    -0.180000       12.0110           0
      3460 MEMB     29       OSM      H4F      HAL2     0.900000E-01   1.00800           0
      3461 MEMB     29       OSM      H4G      HAL2     0.900000E-01   1.00800           0
      3462 MEMB     29       OSM      C5F      CTL2    -0.180000       12.0110           0
      3463 MEMB     29       OSM      H5F      HAL2     0.900000E-01   1.00800           0
      3464 MEMB     29       OSM      H5G      HAL2     0.900000E-01   1.00800           0
      3465 MEMB     29       OSM      C6F      CTL2    -0.180000       12.0110           0
      3466 MEMB     29       OSM      H6F      HAL2     0.900000E-01   1.00800           0
      3467 MEMB     29       OSM      H6G      HAL2     0.900000E-01   1.00800           0
      3468 MEMB     29       OSM      C7F      CTL2    -0.180000       12.0110           0
      3469 MEMB     29       OSM      H7F      HAL2     0.900000E-01   1.00800           0
      3470 MEMB     29       OSM      H7G      HAL2     0.900000E-01   1.00800           0
      3471 MEMB     29       OSM      C8F      CTL2    -0.180000       12.0110           0
      3472 MEMB     29       OSM      H8F      HAL2     0.900000E-01   1.00800           0
      3473 MEMB     29       OSM      H8G      HAL2     0.900000E-01   1.00800           0
      3474 MEMB     29       OSM      C9F      CEL1    -0.150000       12.0110           0
      3475 MEMB     29       OSM      H9F      HEL1     0.150000       1.00800           0
      3476 MEMB     29       OSM      C10F     CEL1    -0.150000       12.0110           0
      3477 MEMB     29       OSM      H10F     HEL1     0.150000       1.00800           0
      3478 MEMB     29       OSM      C11F     CTL2    -0.180000       12.0110           0
      3479 MEMB     29       OSM      H11F     HAL2     0.900000E-01   1.00800           0
      3480 MEMB     29       OSM      H11G     HAL2     0.900000E-01   1.00800           0
      3481 MEMB     29       OSM      C12F     CTL2    -0.180000       12.0110           0
      3482 MEMB     29       OSM      H12F     HAL2     0.900000E-01   1.00800           0
      3483 MEMB     29       OSM      H12G     HAL2     0.900000E-01   1.00800           0
      3484 MEMB     29       OSM      C13F     CTL2    -0.180000       12.0110           0
      3485 MEMB     29       OSM      H13F     HAL2     0.900000E-01   1.00800           0
      3486 MEMB     29       OSM      H13G     HAL2     0.900000E-01   1.00800           0
      3487 MEMB     29       OSM      C14F     CTL2    -0.180000       12.0110           0
      3488 MEMB     29       OSM      H14F     HAL2     0.900000E-01   1.00800           0
      3489 MEMB     29       OSM      H14G     HAL2     0.900000E-01   1.00800           0
      3490 MEMB     29       OSM      C15F     CTL2    -0.180000       12.0110           0
      3491 MEMB     29       OSM      H15F     HAL2     0.900000E-01   1.00800           0
      3492 MEMB     29       OSM      H15G     HAL2     0.900000E-01   1.00800           0
      3493 MEMB     29       OSM      C16F     CTL2    -0.180000       12.0110           0
      3494 MEMB     29       OSM      H16F     HAL2     0.900000E-01   1.00800           0
      3495 MEMB     29       OSM      H16G     HAL2     0.900000E-01   1.00800           0
      3496 MEMB     29       OSM      C17F     CTL2    -0.180000       12.0110           0
      3497 MEMB     29       OSM      H17F     HAL2     0.900000E-01   1.00800           0
      3498 MEMB     29       OSM      H17G     HAL2     0.900000E-01   1.00800           0
      3499 MEMB     29       OSM      C18F     CTL3    -0.270000       12.0110           0
      3500 MEMB     29       OSM      H18F     HAL3     0.900000E-01   1.00800           0
      3501 MEMB     29       OSM      H18G     HAL3     0.900000E-01   1.00800           0
      3502 MEMB     29       OSM      H18H     HAL3     0.900000E-01   1.00800           0
      3503 MEMB     30       SOPE     N        NH3L    -0.300000       14.0070           0
      3504 MEMB     30       SOPE     HN1      HCL      0.330000       1.00800           0
      3505 MEMB     30       SOPE     HN2      HCL      0.330000       1.00800           0
      3506 MEMB     30       SOPE     HN3      HCL      0.330000       1.00800           0
      3507 MEMB     30       SOPE     C12      CTL2     0.130000       12.0110           0
      3508 MEMB     30       SOPE     H12A     HAL2     0.900000E-01   1.00800           0
      3509 MEMB     30       SOPE     H12B     HAL2     0.900000E-01   1.00800           0
      3510 MEMB     30       SOPE     C11      CTL2    -0.800000E-01   12.0110           0
      3511 MEMB     30       SOPE     H11A     HAL2     0.900000E-01   1.00800           0
      3512 MEMB     30       SOPE     H11B     HAL2     0.900000E-01   1.00800           0
      3513 MEMB     30       SOPE     P        PL        1.50000       30.9740           0
      3514 MEMB     30       SOPE     O13      O2L     -0.780000       15.9994           0
      3515 MEMB     30       SOPE     O14      O2L     -0.780000       15.9994           0
      3516 MEMB     30       SOPE     O12      OSLP    -0.570000       15.9994           0
      3517 MEMB     30       SOPE     O11      OSLP    -0.570000       15.9994           0
      3518 MEMB     30       SOPE     C1       CTL2    -0.800000E-01   12.0110           0
      3519 MEMB     30       SOPE     HA       HAL2     0.900000E-01   1.00800           0
      3520 MEMB     30       SOPE     HB       HAL2     0.900000E-01   1.00800           0
      3521 MEMB     30       SOPE     C2       CTL1     0.170000       12.0110           0
      3522 MEMB     30       SOPE     HS       HAL1     0.900000E-01   1.00800           0
      3523 MEMB     30       SOPE     O21      OSL     -0.490000       15.9994           0
      3524 MEMB     30       SOPE     C21      CL       0.900000       12.0110           0
      3525 MEMB     30       SOPE     O22      OBL     -0.630000       15.9994           0
      3526 MEMB     30       SOPE     C22      CTL2    -0.220000       12.0110           0
      3527 MEMB     30       SOPE     H2R      HAL2     0.900000E-01   1.00800           0
      3528 MEMB     30       SOPE     H2S      HAL2     0.900000E-01   1.00800           0
      3529 MEMB     30       SOPE     C3       CTL2     0.800000E-01   12.0110           0
      3530 MEMB     30       SOPE     HX       HAL2     0.900000E-01   1.00800           0
      3531 MEMB     30       SOPE     HY       HAL2     0.900000E-01   1.00800           0
      3532 MEMB     30       SOPE     O31      OSL     -0.490000       15.9994           0
      3533 MEMB     30       SOPE     C31      CL       0.900000       12.0110           0
      3534 MEMB     30       SOPE     O32      OBL     -0.630000       15.9994           0
      3535 MEMB     30       SOPE     C32      CTL2    -0.220000       12.0110           0
      3536 MEMB     30       SOPE     H2X      HAL2     0.900000E-01   1.00800           0
      3537 MEMB     30       SOPE     H2Y      HAL2     0.900000E-01   1.00800           0
      3538 MEMB     30       SOPE     C23      CTL2    -0.180000       12.0110           0
      3539 MEMB     30       SOPE     H3R      HAL2     0.900000E-01   1.00800           0
      3540 MEMB     30       SOPE     H3S      HAL2     0.900000E-01   1.00800           0
      3541 MEMB     30       SOPE     C24      CTL2    -0.180000       12.0110           0
      3542 MEMB     30       SOPE     H4R      HAL2     0.900000E-01   1.00800           0
      3543 MEMB     30       SOPE     H4S      HAL2     0.900000E-01   1.00800           0
      3544 MEMB     30       SOPE     C25      CTL2    -0.180000       12.0110           0
      3545 MEMB     30       SOPE     H5R      HAL2     0.900000E-01   1.00800           0
      3546 MEMB     30       SOPE     H5S      HAL2     0.900000E-01   1.00800           0
      3547 MEMB     30       SOPE     C26      CTL2    -0.180000       12.0110           0
      3548 MEMB     30       SOPE     H6R      HAL2     0.900000E-01   1.00800           0
      3549 MEMB     30       SOPE     H6S      HAL2     0.900000E-01   1.00800           0
      3550 MEMB     30       SOPE     C27      CTL2    -0.180000       12.0110           0
      3551 MEMB     30       SOPE     H7R      HAL2     0.900000E-01   1.00800           0
      3552 MEMB     30       SOPE     H7S      HAL2     0.900000E-01   1.00800           0
      3553 MEMB     30       SOPE     C28      CTL2    -0.180000       12.0110           0
      3554 MEMB     30       SOPE     H8R      HAL2     0.900000E-01   1.00800           0
      3555 MEMB     30       SOPE     H8S      HAL2     0.900000E-01   1.00800           0
      3556 MEMB     30       SOPE     C29      CEL1    -0.150000       12.0110           0
      3557 MEMB     30       SOPE     H91      HEL1     0.150000       1.00800           0
      3558 MEMB     30       SOPE     C210     CEL1    -0.150000       12.0110           0
      3559 MEMB     30       SOPE     H101     HEL1     0.150000       1.00800           0
      3560 MEMB     30       SOPE     C211     CTL2    -0.180000       12.0110           0
      3561 MEMB     30       SOPE     H11R     HAL2     0.900000E-01   1.00800           0
      3562 MEMB     30       SOPE     H11S     HAL2     0.900000E-01   1.00800           0
      3563 MEMB     30       SOPE     C212     CTL2    -0.180000       12.0110           0
      3564 MEMB     30       SOPE     H12R     HAL2     0.900000E-01   1.00800           0
      3565 MEMB     30       SOPE     H12S     HAL2     0.900000E-01   1.00800           0
      3566 MEMB     30       SOPE     C213     CTL2    -0.180000       12.0110           0
      3567 MEMB     30       SOPE     H13R     HAL2     0.900000E-01   1.00800           0
      3568 MEMB     30       SOPE     H13S     HAL2     0.900000E-01   1.00800           0
      3569 MEMB     30       SOPE     C214     CTL2    -0.180000       12.0110           0
      3570 MEMB     30       SOPE     H14R     HAL2     0.900000E-01   1.00800           0
      3571 MEMB     30       SOPE     H14S     HAL2     0.900000E-01   1.00800           0
      3572 MEMB     30       SOPE     C215     CTL2    -0.180000       12.0110           0
      3573 MEMB     30       SOPE     H15R     HAL2     0.900000E-01   1.00800           0
      3574 MEMB     30       SOPE     H15S     HAL2     0.900000E-01   1.00800           0
      3575 MEMB     30       SOPE     C216     CTL2    -0.180000       12.0110           0
      3576 MEMB     30       SOPE     H16R     HAL2     0.900000E-01   1.00800           0
      3577 MEMB     30       SOPE     H16S     HAL2     0.900000E-01   1.00800           0
      3578 MEMB     30       SOPE     C217     CTL2    -0.180000       12.0110           0
      3579 MEMB     30       SOPE     H17R     HAL2     0.900000E-01   1.00800           0
      3580 MEMB     30       SOPE     H17S     HAL2     0.900000E-01   1.00800           0
      3581 MEMB     30       SOPE     C218     CTL3    -0.270000       12.0110           0
      3582 MEMB     30       SOPE     H18R     HAL3     0.900000E-01   1.00800           0
      3583 MEMB     30       SOPE     H18S     HAL3     0.900000E-01   1.00800           0
      3584 MEMB     30       SOPE     H18T     HAL3     0.900000E-01   1.00800           0
      3585 MEMB     30       SOPE     C33      CTL2    -0.180000       12.0110           0
      3586 MEMB     30       SOPE     H3X      HAL2     0.900000E-01   1.00800           0
      3587 MEMB     30       SOPE     H3Y      HAL2     0.900000E-01   1.00800           0
      3588 MEMB     30       SOPE     C34      CTL2    -0.180000       12.0110           0
      3589 MEMB     30       SOPE     H4X      HAL2     0.900000E-01   1.00800           0
      3590 MEMB     30       SOPE     H4Y      HAL2     0.900000E-01   1.00800           0
      3591 MEMB     30       SOPE     C35      CTL2    -0.180000       12.0110           0
      3592 MEMB     30       SOPE     H5X      HAL2     0.900000E-01   1.00800           0
      3593 MEMB     30       SOPE     H5Y      HAL2     0.900000E-01   1.00800           0
      3594 MEMB     30       SOPE     C36      CTL2    -0.180000       12.0110           0
      3595 MEMB     30       SOPE     H6X      HAL2     0.900000E-01   1.00800           0
      3596 MEMB     30       SOPE     H6Y      HAL2     0.900000E-01   1.00800           0
      3597 MEMB     30       SOPE     C37      CTL2    -0.180000       12.0110           0
      3598 MEMB     30       SOPE     H7X      HAL2     0.900000E-01   1.00800           0
      3599 MEMB     30       SOPE     H7Y      HAL2     0.900000E-01   1.00800           0
      3600 MEMB     30       SOPE     C38      CTL2    -0.180000       12.0110           0
      3601 MEMB     30       SOPE     H8X      HAL2     0.900000E-01   1.00800           0
      3602 MEMB     30       SOPE     H8Y      HAL2     0.900000E-01   1.00800           0
      3603 MEMB     30       SOPE     C39      CTL2    -0.180000       12.0110           0
      3604 MEMB     30       SOPE     H9X      HAL2     0.900000E-01   1.00800           0
      3605 MEMB     30       SOPE     H9Y      HAL2     0.900000E-01   1.00800           0
      3606 MEMB     30       SOPE     C310     CTL2    -0.180000       12.0110           0
      3607 MEMB     30       SOPE     H10X     HAL2     0.900000E-01   1.00800           0
      3608 MEMB     30       SOPE     H10Y     HAL2     0.900000E-01   1.00800           0
      3609 MEMB     30       SOPE     C311     CTL2    -0.180000       12.0110           0
      3610 MEMB     30       SOPE     H11X     HAL2     0.900000E-01   1.00800           0
      3611 MEMB     30       SOPE     H11Y     HAL2     0.900000E-01   1.00800           0
      3612 MEMB     30       SOPE     C312     CTL2    -0.180000       12.0110           0
      3613 MEMB     30       SOPE     H12X     HAL2     0.900000E-01   1.00800           0
      3614 MEMB     30       SOPE     H12Y     HAL2     0.900000E-01   1.00800           0
      3615 MEMB     30       SOPE     C313     CTL2    -0.180000       12.0110           0
      3616 MEMB     30       SOPE     H13X     HAL2     0.900000E-01   1.00800           0
      3617 MEMB     30       SOPE     H13Y     HAL2     0.900000E-01   1.00800           0
      3618 MEMB     30       SOPE     C314     CTL2    -0.180000       12.0110           0
      3619 MEMB     30       SOPE     H14X     HAL2     0.900000E-01   1.00800           0
      3620 MEMB     30       SOPE     H14Y     HAL2     0.900000E-01   1.00800           0
      3621 MEMB     30       SOPE     C315     CTL2    -0.180000       12.0110           0
      3622 MEMB     30       SOPE     H15X     HAL2     0.900000E-01   1.00800           0
      3623 MEMB     30       SOPE     H15Y     HAL2     0.900000E-01   1.00800           0
      3624 MEMB     30       SOPE     C316     CTL2    -0.180000       12.0110           0
      3625 MEMB     30       SOPE     H16X     HAL2     0.900000E-01   1.00800           0
      3626 MEMB     30       SOPE     H16Y     HAL2     0.900000E-01   1.00800           0
      3627 MEMB     30       SOPE     C317     CTL2    -0.180000       12.0110           0
      3628 MEMB     30       SOPE     H17X     HAL2     0.900000E-01   1.00800           0
      3629 MEMB     30       SOPE     H17Y     HAL2     0.900000E-01   1.00800           0
      3630 MEMB     30       SOPE     C318     CTL3    -0.270000       12.0110           0
      3631 MEMB     30       SOPE     H18X     HAL3     0.900000E-01   1.00800           0
      3632 MEMB     30       SOPE     H18Y     HAL3     0.900000E-01   1.00800           0
      3633 MEMB     30       SOPE     H18Z     HAL3     0.900000E-01   1.00800           0
      3634 MEMB     31       OSM      N        NTL     -0.600000       14.0070           0
      3635 MEMB     31       OSM      C15      CTL5    -0.350000       12.0110           0
      3636 MEMB     31       OSM      H15A     HL       0.250000       1.00800           0
      3637 MEMB     31       OSM      H15B     HL       0.250000       1.00800           0
      3638 MEMB     31       OSM      H15C     HL       0.250000       1.00800           0
      3639 MEMB     31       OSM      C14      CTL5    -0.350000       12.0110           0
      3640 MEMB     31       OSM      H14A     HL       0.250000       1.00800           0
      3641 MEMB     31       OSM      H14B     HL       0.250000       1.00800           0
      3642 MEMB     31       OSM      H14C     HL       0.250000       1.00800           0
      3643 MEMB     31       OSM      C13      CTL5    -0.350000       12.0110           0
      3644 MEMB     31       OSM      H13A     HL       0.250000       1.00800           0
      3645 MEMB     31       OSM      H13B     HL       0.250000       1.00800           0
      3646 MEMB     31       OSM      H13C     HL       0.250000       1.00800           0
      3647 MEMB     31       OSM      C12      CTL2    -0.100000       12.0110           0
      3648 MEMB     31       OSM      H12A     HL       0.250000       1.00800           0
      3649 MEMB     31       OSM      H12B     HL       0.250000       1.00800           0
      3650 MEMB     31       OSM      C11      CTL2    -0.800000E-01   12.0110           0
      3651 MEMB     31       OSM      H11A     HAL2     0.900000E-01   1.00800           0
      3652 MEMB     31       OSM      H11B     HAL2     0.900000E-01   1.00800           0
      3653 MEMB     31       OSM      P        PL        1.50000       30.9740           0
      3654 MEMB     31       OSM      O13      O2L     -0.780000       15.9994           0
      3655 MEMB     31       OSM      O14      O2L     -0.780000       15.9994           0
      3656 MEMB     31       OSM      O11      OSLP    -0.570000       15.9994           0
      3657 MEMB     31       OSM      O12      OSLP    -0.570000       15.9994           0
      3658 MEMB     31       OSM      C1S      CTL2    -0.800000E-01   12.0110           0
      3659 MEMB     31       OSM      H1S      HAL2     0.900000E-01   1.00800           0
      3660 MEMB     31       OSM      H1T      HAL2     0.900000E-01   1.00800           0
      3661 MEMB     31       OSM      NF       NHL     -0.700000       14.0070           0
      3662 MEMB     31       OSM      HNF      H        0.350000       1.00800           0
      3663 MEMB     31       OSM      C2S      CTL1     0.300000       12.0110           0
      3664 MEMB     31       OSM      H2S      HAL1     0.500000E-01   1.00800           0
      3665 MEMB     31       OSM      C3S      CTO1     0.500000       12.0110           0
      3666 MEMB     31       OSM      H3S      HAL1    -0.110000       1.00800           0
      3667 MEMB     31       OSM      O3       OHL     -0.690000       15.9994           0
      3668 MEMB     31       OSM      HO3      HOL      0.300000       1.00800           0
      3669 MEMB     31       OSM      C4S      CEL3    -0.150000       12.0110           0
      3670 MEMB     31       OSM      H4S      HEL1     0.150000       1.00800           0
      3671 MEMB     31       OSM      C5S      CEL3    -0.150000       12.0110           0
      3672 MEMB     31       OSM      H5S      HEL1     0.150000       1.00800           0
      3673 MEMB     31       OSM      C6S      CTL2    -0.180000       12.0110           0
      3674 MEMB     31       OSM      H6S      HAL2     0.900000E-01   1.00800           0
      3675 MEMB     31       OSM      H6T      HAL2     0.900000E-01   1.00800           0
      3676 MEMB     31       OSM      C7S      CTL2    -0.180000       12.0110           0
      3677 MEMB     31       OSM      H7S      HAL2     0.900000E-01   1.00800           0
      3678 MEMB     31       OSM      H7T      HAL2     0.900000E-01   1.00800           0
      3679 MEMB     31       OSM      C8S      CTL2    -0.180000       12.0110           0
      3680 MEMB     31       OSM      H8S      HAL2     0.900000E-01   1.00800           0
      3681 MEMB     31       OSM      H8T      HAL2     0.900000E-01   1.00800           0
      3682 MEMB     31       OSM      C9S      CTL2    -0.180000       12.0110           0
      3683 MEMB     31       OSM      H9S      HAL2     0.900000E-01   1.00800           0
      3684 MEMB     31       OSM      H9T      HAL2     0.900000E-01   1.00800           0
      3685 MEMB     31       OSM      C10S     CTL2    -0.180000       12.0110           0
      3686 MEMB     31       OSM      H10S     HAL2     0.900000E-01   1.00800           0
      3687 MEMB     31       OSM      H10T     HAL2     0.900000E-01   1.00800           0
      3688 MEMB     31       OSM      C11S     CTL2    -0.180000       12.0110           0
      3689 MEMB     31       OSM      H11S     HAL2     0.900000E-01   1.00800           0
      3690 MEMB     31       OSM      H11T     HAL2     0.900000E-01   1.00800           0
      3691 MEMB     31       OSM      C12S     CTL2    -0.180000       12.0110           0
      3692 MEMB     31       OSM      H12S     HAL2     0.900000E-01   1.00800           0
      3693 MEMB     31       OSM      H12T     HAL2     0.900000E-01   1.00800           0
      3694 MEMB     31       OSM      C13S     CTL2    -0.180000       12.0110           0
      3695 MEMB     31       OSM      H13S     HAL2     0.900000E-01   1.00800           0
      3696 MEMB     31       OSM      H13T     HAL2     0.900000E-01   1.00800           0
      3697 MEMB     31       OSM      C14S     CTL2    -0.180000       12.0110           0
      3698 MEMB     31       OSM      H14S     HAL2     0.900000E-01   1.00800           0
      3699 MEMB     31       OSM      H14T     HAL2     0.900000E-01   1.00800           0
      3700 MEMB     31       OSM      C15S     CTL2    -0.180000       12.0110           0
      3701 MEMB     31       OSM      H15S     HAL2     0.900000E-01   1.00800           0
      3702 MEMB     31       OSM      H15T     HAL2     0.900000E-01   1.00800           0
      3703 MEMB     31       OSM      C16S     CTL2    -0.180000       12.0110           0
      3704 MEMB     31       OSM      H16S     HAL2     0.900000E-01   1.00800           0
      3705 MEMB     31       OSM      H16T     HAL2     0.900000E-01   1.00800           0
      3706 MEMB     31       OSM      C17S     CTL2    -0.180000       12.0110           0
      3707 MEMB     31       OSM      H17S     HAL2     0.900000E-01   1.00800           0
      3708 MEMB     31       OSM      H17T     HAL2     0.900000E-01   1.00800           0
      3709 MEMB     31       OSM      C18S     CTL3    -0.270000       12.0110           0
      3710 MEMB     31       OSM      H18S     HAL3     0.900000E-01   1.00800           0
      3711 MEMB     31       OSM      H18T     HAL3     0.900000E-01   1.00800           0
      3712 MEMB     31       OSM      H18U     HAL3     0.900000E-01   1.00800           0
      3713 MEMB     31       OSM      C1F      C        0.550000       12.0110           0
      3714 MEMB     31       OSM      OF       O       -0.600000       15.9994           0
      3715 MEMB     31       OSM      C2F      CTL2    -0.700000E-01   12.0110           0
      3716 MEMB     31       OSM      H2F      HAL2     0.600000E-01   1.00800           0
      3717 MEMB     31       OSM      H2G      HAL2     0.600000E-01   1.00800           0
      3718 MEMB     31       OSM      C3F      CTL2    -0.180000       12.0110           0
      3719 MEMB     31       OSM      H3F      HAL2     0.900000E-01   1.00800           0
      3720 MEMB     31       OSM      H3G      HAL2     0.900000E-01   1.00800           0
      3721 MEMB     31       OSM      C4F      CTL2    -0.180000       12.0110           0
      3722 MEMB     31       OSM      H4F      HAL2     0.900000E-01   1.00800           0
      3723 MEMB     31       OSM      H4G      HAL2     0.900000E-01   1.00800           0
      3724 MEMB     31       OSM      C5F      CTL2    -0.180000       12.0110           0
      3725 MEMB     31       OSM      H5F      HAL2     0.900000E-01   1.00800           0
      3726 MEMB     31       OSM      H5G      HAL2     0.900000E-01   1.00800           0
      3727 MEMB     31       OSM      C6F      CTL2    -0.180000       12.0110           0
      3728 MEMB     31       OSM      H6F      HAL2     0.900000E-01   1.00800           0
      3729 MEMB     31       OSM      H6G      HAL2     0.900000E-01   1.00800           0
      3730 MEMB     31       OSM      C7F      CTL2    -0.180000       12.0110           0
      3731 MEMB     31       OSM      H7F      HAL2     0.900000E-01   1.00800           0
      3732 MEMB     31       OSM      H7G      HAL2     0.900000E-01   1.00800           0
      3733 MEMB     31       OSM      C8F      CTL2    -0.180000       12.0110           0
      3734 MEMB     31       OSM      H8F      HAL2     0.900000E-01   1.00800           0
      3735 MEMB     31       OSM      H8G      HAL2     0.900000E-01   1.00800           0
      3736 MEMB     31       OSM      C9F      CEL1    -0.150000       12.0110           0
      3737 MEMB     31       OSM      H9F      HEL1     0.150000       1.00800           0
      3738 MEMB     31       OSM      C10F     CEL1    -0.150000       12.0110           0
      3739 MEMB     31       OSM      H10F     HEL1     0.150000       1.00800           0
      3740 MEMB     31       OSM      C11F     CTL2    -0.180000       12.0110           0
      3741 MEMB     31       OSM      H11F     HAL2     0.900000E-01   1.00800           0
      3742 MEMB     31       OSM      H11G     HAL2     0.900000E-01   1.00800           0
      3743 MEMB     31       OSM      C12F     CTL2    -0.180000       12.0110           0
      3744 MEMB     31       OSM      H12F     HAL2     0.900000E-01   1.00800           0
      3745 MEMB     31       OSM      H12G     HAL2     0.900000E-01   1.00800           0
      3746 MEMB     31       OSM      C13F     CTL2    -0.180000       12.0110           0
      3747 MEMB     31       OSM      H13F     HAL2     0.900000E-01   1.00800           0
      3748 MEMB     31       OSM      H13G     HAL2     0.900000E-01   1.00800           0
      3749 MEMB     31       OSM      C14F     CTL2    -0.180000       12.0110           0
      3750 MEMB     31       OSM      H14F     HAL2     0.900000E-01   1.00800           0
      3751 MEMB     31       OSM      H14G     HAL2     0.900000E-01   1.00800           0
      3752 MEMB     31       OSM      C15F     CTL2    -0.180000       12.0110           0
      3753 MEMB     31       OSM      H15F     HAL2     0.900000E-01   1.00800           0
      3754 MEMB     31       OSM      H15G     HAL2     0.900000E-01   1.00800           0
      3755 MEMB     31       OSM      C16F     CTL2    -0.180000       12.0110           0
      3756 MEMB     31       OSM      H16F     HAL2     0.900000E-01   1.00800           0
      3757 MEMB     31       OSM      H16G     HAL2     0.900000E-01   1.00800           0
      3758 MEMB     31       OSM      C17F     CTL2    -0.180000       12.0110           0
      3759 MEMB     31       OSM      H17F     HAL2     0.900000E-01   1.00800           0
      3760 MEMB     31       OSM      H17G     HAL2     0.900000E-01   1.00800           0
      3761 MEMB     31       OSM      C18F     CTL3    -0.270000       12.0110           0
      3762 MEMB     31       OSM      H18F     HAL3     0.900000E-01   1.00800           0
      3763 MEMB     31       OSM      H18G     HAL3     0.900000E-01   1.00800           0
      3764 MEMB     31       OSM      H18H     HAL3     0.900000E-01   1.00800           0
      3765 MEMB     32       OSM      N        NTL     -0.600000       14.0070           0
      3766 MEMB     32       OSM      C15      CTL5    -0.350000       12.0110           0
      3767 MEMB     32       OSM      H15A     HL       0.250000       1.00800           0
      3768 MEMB     32       OSM      H15B     HL       0.250000       1.00800           0
      3769 MEMB     32       OSM      H15C     HL       0.250000       1.00800           0
      3770 MEMB     32       OSM      C14      CTL5    -0.350000       12.0110           0
      3771 MEMB     32       OSM      H14A     HL       0.250000       1.00800           0
      3772 MEMB     32       OSM      H14B     HL       0.250000       1.00800           0
      3773 MEMB     32       OSM      H14C     HL       0.250000       1.00800           0
      3774 MEMB     32       OSM      C13      CTL5    -0.350000       12.0110           0
      3775 MEMB     32       OSM      H13A     HL       0.250000       1.00800           0
      3776 MEMB     32       OSM      H13B     HL       0.250000       1.00800           0
      3777 MEMB     32       OSM      H13C     HL       0.250000       1.00800           0
      3778 MEMB     32       OSM      C12      CTL2    -0.100000       12.0110           0
      3779 MEMB     32       OSM      H12A     HL       0.250000       1.00800           0
      3780 MEMB     32       OSM      H12B     HL       0.250000       1.00800           0
      3781 MEMB     32       OSM      C11      CTL2    -0.800000E-01   12.0110           0
      3782 MEMB     32       OSM      H11A     HAL2     0.900000E-01   1.00800           0
      3783 MEMB     32       OSM      H11B     HAL2     0.900000E-01   1.00800           0
      3784 MEMB     32       OSM      P        PL        1.50000       30.9740           0
      3785 MEMB     32       OSM      O13      O2L     -0.780000       15.9994           0
      3786 MEMB     32       OSM      O14      O2L     -0.780000       15.9994           0
      3787 MEMB     32       OSM      O11      OSLP    -0.570000       15.9994           0
      3788 MEMB     32       OSM      O12      OSLP    -0.570000       15.9994           0
      3789 MEMB     32       OSM      C1S      CTL2    -0.800000E-01   12.0110           0
      3790 MEMB     32       OSM      H1S      HAL2     0.900000E-01   1.00800           0
      3791 MEMB     32       OSM      H1T      HAL2     0.900000E-01   1.00800           0
      3792 MEMB     32       OSM      NF       NHL     -0.700000       14.0070           0
      3793 MEMB     32       OSM      HNF      H        0.350000       1.00800           0
      3794 MEMB     32       OSM      C2S      CTL1     0.300000       12.0110           0
      3795 MEMB     32       OSM      H2S      HAL1     0.500000E-01   1.00800           0
      3796 MEMB     32       OSM      C3S      CTO1     0.500000       12.0110           0
      3797 MEMB     32       OSM      H3S      HAL1    -0.110000       1.00800           0
      3798 MEMB     32       OSM      O3       OHL     -0.690000       15.9994           0
      3799 MEMB     32       OSM      HO3      HOL      0.300000       1.00800           0
      3800 MEMB     32       OSM      C4S      CEL3    -0.150000       12.0110           0
      3801 MEMB     32       OSM      H4S      HEL1     0.150000       1.00800           0
      3802 MEMB     32       OSM      C5S      CEL3    -0.150000       12.0110           0
      3803 MEMB     32       OSM      H5S      HEL1     0.150000       1.00800           0
      3804 MEMB     32       OSM      C6S      CTL2    -0.180000       12.0110           0
      3805 MEMB     32       OSM      H6S      HAL2     0.900000E-01   1.00800           0
      3806 MEMB     32       OSM      H6T      HAL2     0.900000E-01   1.00800           0
      3807 MEMB     32       OSM      C7S      CTL2    -0.180000       12.0110           0
      3808 MEMB     32       OSM      H7S      HAL2     0.900000E-01   1.00800           0
      3809 MEMB     32       OSM      H7T      HAL2     0.900000E-01   1.00800           0
      3810 MEMB     32       OSM      C8S      CTL2    -0.180000       12.0110           0
      3811 MEMB     32       OSM      H8S      HAL2     0.900000E-01   1.00800           0
      3812 MEMB     32       OSM      H8T      HAL2     0.900000E-01   1.00800           0
      3813 MEMB     32       OSM      C9S      CTL2    -0.180000       12.0110           0
      3814 MEMB     32       OSM      H9S      HAL2     0.900000E-01   1.00800           0
      3815 MEMB     32       OSM      H9T      HAL2     0.900000E-01   1.00800           0
      3816 MEMB     32       OSM      C10S     CTL2    -0.180000       12.0110           0
      3817 MEMB     32       OSM      H10S     HAL2     0.900000E-01   1.00800           0
      3818 MEMB     32       OSM      H10T     HAL2     0.900000E-01   1.00800           0
      3819 MEMB     32       OSM      C11S     CTL2    -0.180000       12.0110           0
      3820 MEMB     32       OSM      H11S     HAL2     0.900000E-01   1.00800           0
      3821 MEMB     32       OSM      H11T     HAL2     0.900000E-01   1.00800           0
      3822 MEMB     32       OSM      C12S     CTL2    -0.180000       12.0110           0
      3823 MEMB     32       OSM      H12S     HAL2     0.900000E-01   1.00800           0
      3824 MEMB     32       OSM      H12T     HAL2     0.900000E-01   1.00800           0
      3825 MEMB     32       OSM      C13S     CTL2    -0.180000       12.0110           0
      3826 MEMB     32       OSM      H13S     HAL2     0.900000E-01   1.00800           0
      3827 MEMB     32       OSM      H13T     HAL2     0.900000E-01   1.00800           0
      3828 MEMB     32       OSM      C14S     CTL2    -0.180000       12.0110           0
      3829 MEMB     32       OSM      H14S     HAL2     0.900000E-01   1.00800           0
      3830 MEMB     32       OSM      H14T     HAL2     0.900000E-01   1.00800           0
      3831 MEMB     32       OSM      C15S     CTL2    -0.180000       12.0110           0
      3832 MEMB     32       OSM      H15S     HAL2     0.900000E-01   1.00800           0
      3833 MEMB     32       OSM      H15T     HAL2     0.900000E-01   1.00800           0
      3834 MEMB     32       OSM      C16S     CTL2    -0.180000       12.0110           0
      3835 MEMB     32       OSM      H16S     HAL2     0.900000E-01   1.00800           0
      3836 MEMB     32       OSM      H16T     HAL2     0.900000E-01   1.00800           0
      3837 MEMB     32       OSM      C17S     CTL2    -0.180000       12.0110           0
      3838 MEMB     32       OSM      H17S     HAL2     0.900000E-01   1.00800           0
      3839 MEMB     32       OSM      H17T     HAL2     0.900000E-01   1.00800           0
      3840 MEMB     32       OSM      C18S     CTL3    -0.270000       12.0110           0
      3841 MEMB     32       OSM      H18S     HAL3     0.900000E-01   1.00800           0
      3842 MEMB     32       OSM      H18T     HAL3     0.900000E-01   1.00800           0
      3843 MEMB     32       OSM      H18U     HAL3     0.900000E-01   1.00800           0
      3844 MEMB     32       OSM      C1F      C        0.550000       12.0110           0
      3845 MEMB     32       OSM      OF       O       -0.600000       15.9994           0
      3846 MEMB     32       OSM      C2F      CTL2    -0.700000E-01   12.0110           0
      3847 MEMB     32       OSM      H2F      HAL2     0.600000E-01   1.00800           0
      3848 MEMB     32       OSM      H2G      HAL2     0.600000E-01   1.00800           0
      3849 MEMB     32       OSM      C3F      CTL2    -0.180000       12.0110           0
      3850 MEMB     32       OSM      H3F      HAL2     0.900000E-01   1.00800           0
      3851 MEMB     32       OSM      H3G      HAL2     0.900000E-01   1.00800           0
      3852 MEMB     32       OSM      C4F      CTL2    -0.180000       12.0110           0
      3853 MEMB     32       OSM      H4F      HAL2     0.900000E-01   1.00800           0
      3854 MEMB     32       OSM      H4G      HAL2     0.900000E-01   1.00800           0
      3855 MEMB     32       OSM      C5F      CTL2    -0.180000       12.0110           0
      3856 MEMB     32       OSM      H5F      HAL2     0.900000E-01   1.00800           0
      3857 MEMB     32       OSM      H5G      HAL2     0.900000E-01   1.00800           0
      3858 MEMB     32       OSM      C6F      CTL2    -0.180000       12.0110           0
      3859 MEMB     32       OSM      H6F      HAL2     0.900000E-01   1.00800           0
      3860 MEMB     32       OSM      H6G      HAL2     0.900000E-01   1.00800           0
      3861 MEMB     32       OSM      C7F      CTL2    -0.180000       12.0110           0
      3862 MEMB     32       OSM      H7F      HAL2     0.900000E-01   1.00800           0
      3863 MEMB     32       OSM      H7G      HAL2     0.900000E-01   1.00800           0
      3864 MEMB     32       OSM      C8F      CTL2    -0.180000       12.0110           0
      3865 MEMB     32       OSM      H8F      HAL2     0.900000E-01   1.00800           0
      3866 MEMB     32       OSM      H8G      HAL2     0.900000E-01   1.00800           0
      3867 MEMB     32       OSM      C9F      CEL1    -0.150000       12.0110           0
      3868 MEMB     32       OSM      H9F      HEL1     0.150000       1.00800           0
      3869 MEMB     32       OSM      C10F     CEL1    -0.150000       12.0110           0
      3870 MEMB     32       OSM      H10F     HEL1     0.150000       1.00800           0
      3871 MEMB     32       OSM      C11F     CTL2    -0.180000       12.0110           0
      3872 MEMB     32       OSM      H11F     HAL2     0.900000E-01   1.00800           0
      3873 MEMB     32       OSM      H11G     HAL2     0.900000E-01   1.00800           0
      3874 MEMB     32       OSM      C12F     CTL2    -0.180000       12.0110           0
      3875 MEMB     32       OSM      H12F     HAL2     0.900000E-01   1.00800           0
      3876 MEMB     32       OSM      H12G     HAL2     0.900000E-01   1.00800           0
      3877 MEMB     32       OSM      C13F     CTL2    -0.180000       12.0110           0
      3878 MEMB     32       OSM      H13F     HAL2     0.900000E-01   1.00800           0
      3879 MEMB     32       OSM      H13G     HAL2     0.900000E-01   1.00800           0
      3880 MEMB     32       OSM      C14F     CTL2    -0.180000       12.0110           0
      3881 MEMB     32       OSM      H14F     HAL2     0.900000E-01   1.00800           0
      3882 MEMB     32       OSM      H14G     HAL2     0.900000E-01   1.00800           0
      3883 MEMB     32       OSM      C15F     CTL2    -0.180000       12.0110           0
      3884 MEMB     32       OSM      H15F     HAL2     0.900000E-01   1.00800           0
      3885 MEMB     32       OSM      H15G     HAL2     0.900000E-01   1.00800           0
      3886 MEMB     32       OSM      C16F     CTL2    -0.180000       12.0110           0
      3887 MEMB     32       OSM      H16F     HAL2     0.900000E-01   1.00800           0
      3888 MEMB     32       OSM      H16G     HAL2     0.900000E-01   1.00800           0
      3889 MEMB     32       OSM      C17F     CTL2    -0.180000       12.0110           0
      3890 MEMB     32       OSM      H17F     HAL2     0.900000E-01   1.00800           0
      3891 MEMB     32       OSM      H17G     HAL2     0.900000E-01   1.00800           0
      3892 MEMB     32       OSM      C18F     CTL3    -0.270000       12.0110           0
      3893 MEMB     32       OSM      H18F     HAL3     0.900000E-01   1.00800           0
      3894 MEMB     32       OSM      H18G     HAL3     0.900000E-01   1.00800           0
      3895 MEMB     32       OSM      H18H     HAL3     0.900000E-01   1.00800           0
      3896 MEMB     33       SAPS     N        NH3L    -0.300000       14.0070           0
      3897 MEMB     33       SAPS     HN1      HCL      0.330000       1.00800           0
      3898 MEMB     33       SAPS     HN2      HCL      0.330000       1.00800           0
      3899 MEMB     33       SAPS     HN3      HCL      0.330000       1.00800           0
      3900 MEMB     33       SAPS     C12      CTL1     0.210000       12.0110           0
      3901 MEMB     33       SAPS     H12A     HBL      0.100000       1.00800           0
      3902 MEMB     33       SAPS     C13      CCL      0.340000       12.0110           0
      3903 MEMB     33       SAPS     O13A     OCL     -0.670000       15.9994           0
      3904 MEMB     33       SAPS     O13B     OCL     -0.670000       15.9994           0
      3905 MEMB     33       SAPS     C11      CTL2    -0.800000E-01   12.0110           0
      3906 MEMB     33       SAPS     H11A     HAL2     0.900000E-01   1.00800           0
      3907 MEMB     33       SAPS     H11B     HAL2     0.900000E-01   1.00800           0
      3908 MEMB     33       SAPS     P        PL        1.50000       30.9740           0
      3909 MEMB     33       SAPS     O13      O2L     -0.780000       15.9994           0
      3910 MEMB     33       SAPS     O14      O2L     -0.780000       15.9994           0
      3911 MEMB     33       SAPS     O12      OSLP    -0.570000       15.9994           0
      3912 MEMB     33       SAPS     O11      OSLP    -0.570000       15.9994           0
      3913 MEMB     33       SAPS     C1       CTL2    -0.800000E-01   12.0110           0
      3914 MEMB     33       SAPS     HA       HAL2     0.900000E-01   1.00800           0
      3915 MEMB     33       SAPS     HB       HAL2     0.900000E-01   1.00800           0
      3916 MEMB     33       SAPS     C2       CTL1     0.170000       12.0110           0
      3917 MEMB     33       SAPS     HS       HAL1     0.900000E-01   1.00800           0
      3918 MEMB     33       SAPS     O21      OSL     -0.490000       15.9994           0
      3919 MEMB     33       SAPS     C21      CL       0.900000       12.0110           0
      3920 MEMB     33       SAPS     O22      OBL     -0.630000       15.9994           0
      3921 MEMB     33       SAPS     C22      CTL2    -0.220000       12.0110           0
      3922 MEMB     33       SAPS     H2R      HAL2     0.900000E-01   1.00800           0
      3923 MEMB     33       SAPS     H2S      HAL2     0.900000E-01   1.00800           0
      3924 MEMB     33       SAPS     C3       CTL2     0.800000E-01   12.0110           0
      3925 MEMB     33       SAPS     HX       HAL2     0.900000E-01   1.00800           0
      3926 MEMB     33       SAPS     HY       HAL2     0.900000E-01   1.00800           0
      3927 MEMB     33       SAPS     O31      OSL     -0.490000       15.9994           0
      3928 MEMB     33       SAPS     C31      CL       0.900000       12.0110           0
      3929 MEMB     33       SAPS     O32      OBL     -0.630000       15.9994           0
      3930 MEMB     33       SAPS     C32      CTL2    -0.220000       12.0110           0
      3931 MEMB     33       SAPS     H2X      HAL2     0.900000E-01   1.00800           0
      3932 MEMB     33       SAPS     H2Y      HAL2     0.900000E-01   1.00800           0
      3933 MEMB     33       SAPS     C23      CTL2    -0.180000       12.0110           0
      3934 MEMB     33       SAPS     H3R      HAL2     0.900000E-01   1.00800           0
      3935 MEMB     33       SAPS     H3S      HAL2     0.900000E-01   1.00800           0
      3936 MEMB     33       SAPS     C24      CTL2    -0.180000       12.0110           0
      3937 MEMB     33       SAPS     H4R      HAL2     0.900000E-01   1.00800           0
      3938 MEMB     33       SAPS     H4S      HAL2     0.900000E-01   1.00800           0
      3939 MEMB     33       SAPS     C25      CEL1    -0.150000       12.0110           0
      3940 MEMB     33       SAPS     H5R      HEL1     0.150000       1.00800           0
      3941 MEMB     33       SAPS     C26      CEL1    -0.150000       12.0110           0
      3942 MEMB     33       SAPS     H6R      HEL1     0.150000       1.00800           0
      3943 MEMB     33       SAPS     C27      CTL2    -0.180000       12.0110           0
      3944 MEMB     33       SAPS     H7R      HAL2     0.900000E-01   1.00800           0
      3945 MEMB     33       SAPS     H7S      HAL2     0.900000E-01   1.00800           0
      3946 MEMB     33       SAPS     C28      CEL1    -0.150000       12.0110           0
      3947 MEMB     33       SAPS     H8R      HEL1     0.150000       1.00800           0
      3948 MEMB     33       SAPS     C29      CEL1    -0.150000       12.0110           0
      3949 MEMB     33       SAPS     H9R      HEL1     0.150000       1.00800           0
      3950 MEMB     33       SAPS     C210     CTL2    -0.180000       12.0110           0
      3951 MEMB     33       SAPS     H10R     HAL2     0.900000E-01   1.00800           0
      3952 MEMB     33       SAPS     H10S     HAL2     0.900000E-01   1.00800           0
      3953 MEMB     33       SAPS     C211     CEL1    -0.150000       12.0110           0
      3954 MEMB     33       SAPS     H11R     HEL1     0.150000       1.00800           0
      3955 MEMB     33       SAPS     C212     CEL1    -0.150000       12.0110           0
      3956 MEMB     33       SAPS     H12R     HEL1     0.150000       1.00800           0
      3957 MEMB     33       SAPS     C213     CTL2    -0.180000       12.0110           0
      3958 MEMB     33       SAPS     H13R     HAL2     0.900000E-01   1.00800           0
      3959 MEMB     33       SAPS     H13S     HAL2     0.900000E-01   1.00800           0
      3960 MEMB     33       SAPS     C214     CEL1    -0.150000       12.0110           0
      3961 MEMB     33       SAPS     H14R     HEL1     0.150000       1.00800           0
      3962 MEMB     33       SAPS     C215     CEL1    -0.150000       12.0110           0
      3963 MEMB     33       SAPS     H15R     HEL1     0.150000       1.00800           0
      3964 MEMB     33       SAPS     C216     CTL2    -0.180000       12.0110           0
      3965 MEMB     33       SAPS     H16R     HAL2     0.900000E-01   1.00800           0
      3966 MEMB     33       SAPS     H16S     HAL2     0.900000E-01   1.00800           0
      3967 MEMB     33       SAPS     C217     CTL2    -0.180000       12.0110           0
      3968 MEMB     33       SAPS     H17R     HAL2     0.900000E-01   1.00800           0
      3969 MEMB     33       SAPS     H17S     HAL2     0.900000E-01   1.00800           0
      3970 MEMB     33       SAPS     C218     CTL2    -0.180000       12.0110           0
      3971 MEMB     33       SAPS     H18R     HAL2     0.900000E-01   1.00800           0
      3972 MEMB     33       SAPS     H18S     HAL2     0.900000E-01   1.00800           0
      3973 MEMB     33       SAPS     C219     CTL2    -0.180000       12.0110           0
      3974 MEMB     33       SAPS     H19R     HAL2     0.900000E-01   1.00800           0
      3975 MEMB     33       SAPS     H19S     HAL2     0.900000E-01   1.00800           0
      3976 MEMB     33       SAPS     C220     CTL3    -0.270000       12.0110           0
      3977 MEMB     33       SAPS     H20R     HAL3     0.900000E-01   1.00800           0
      3978 MEMB     33       SAPS     H20S     HAL3     0.900000E-01   1.00800           0
      3979 MEMB     33       SAPS     H20T     HAL3     0.900000E-01   1.00800           0
      3980 MEMB     33       SAPS     C33      CTL2    -0.180000       12.0110           0
      3981 MEMB     33       SAPS     H3X      HAL2     0.900000E-01   1.00800           0
      3982 MEMB     33       SAPS     H3Y      HAL2     0.900000E-01   1.00800           0
      3983 MEMB     33       SAPS     C34      CTL2    -0.180000       12.0110           0
      3984 MEMB     33       SAPS     H4X      HAL2     0.900000E-01   1.00800           0
      3985 MEMB     33       SAPS     H4Y      HAL2     0.900000E-01   1.00800           0
      3986 MEMB     33       SAPS     C35      CTL2    -0.180000       12.0110           0
      3987 MEMB     33       SAPS     H5X      HAL2     0.900000E-01   1.00800           0
      3988 MEMB     33       SAPS     H5Y      HAL2     0.900000E-01   1.00800           0
      3989 MEMB     33       SAPS     C36      CTL2    -0.180000       12.0110           0
      3990 MEMB     33       SAPS     H6X      HAL2     0.900000E-01   1.00800           0
      3991 MEMB     33       SAPS     H6Y      HAL2     0.900000E-01   1.00800           0
      3992 MEMB     33       SAPS     C37      CTL2    -0.180000       12.0110           0
      3993 MEMB     33       SAPS     H7X      HAL2     0.900000E-01   1.00800           0
      3994 MEMB     33       SAPS     H7Y      HAL2     0.900000E-01   1.00800           0
      3995 MEMB     33       SAPS     C38      CTL2    -0.180000       12.0110           0
      3996 MEMB     33       SAPS     H8X      HAL2     0.900000E-01   1.00800           0
      3997 MEMB     33       SAPS     H8Y      HAL2     0.900000E-01   1.00800           0
      3998 MEMB     33       SAPS     C39      CTL2    -0.180000       12.0110           0
      3999 MEMB     33       SAPS     H9X      HAL2     0.900000E-01   1.00800           0
      4000 MEMB     33       SAPS     H9Y      HAL2     0.900000E-01   1.00800           0
      4001 MEMB     33       SAPS     C310     CTL2    -0.180000       12.0110           0
      4002 MEMB     33       SAPS     H10X     HAL2     0.900000E-01   1.00800           0
      4003 MEMB     33       SAPS     H10Y     HAL2     0.900000E-01   1.00800           0
      4004 MEMB     33       SAPS     C311     CTL2    -0.180000       12.0110           0
      4005 MEMB     33       SAPS     H11X     HAL2     0.900000E-01   1.00800           0
      4006 MEMB     33       SAPS     H11Y     HAL2     0.900000E-01   1.00800           0
      4007 MEMB     33       SAPS     C312     CTL2    -0.180000       12.0110           0
      4008 MEMB     33       SAPS     H12X     HAL2     0.900000E-01   1.00800           0
      4009 MEMB     33       SAPS     H12Y     HAL2     0.900000E-01   1.00800           0
      4010 MEMB     33       SAPS     C313     CTL2    -0.180000       12.0110           0
      4011 MEMB     33       SAPS     H13X     HAL2     0.900000E-01   1.00800           0
      4012 MEMB     33       SAPS     H13Y     HAL2     0.900000E-01   1.00800           0
      4013 MEMB     33       SAPS     C314     CTL2    -0.180000       12.0110           0
      4014 MEMB     33       SAPS     H14X     HAL2     0.900000E-01   1.00800           0
      4015 MEMB     33       SAPS     H14Y     HAL2     0.900000E-01   1.00800           0
      4016 MEMB     33       SAPS     C315     CTL2    -0.180000       12.0110           0
      4017 MEMB     33       SAPS     H15X     HAL2     0.900000E-01   1.00800           0
      4018 MEMB     33       SAPS     H15Y     HAL2     0.900000E-01   1.00800           0
      4019 MEMB     33       SAPS     C316     CTL2    -0.180000       12.0110           0
      4020 MEMB     33       SAPS     H16X     HAL2     0.900000E-01   1.00800           0
      4021 MEMB     33       SAPS     H16Y     HAL2     0.900000E-01   1.00800           0
      4022 MEMB     33       SAPS     C317     CTL2    -0.180000       12.0110           0
      4023 MEMB     33       SAPS     H17X     HAL2     0.900000E-01   1.00800           0
      4024 MEMB     33       SAPS     H17Y     HAL2     0.900000E-01   1.00800           0
      4025 MEMB     33       SAPS     C318     CTL3    -0.270000       12.0110           0
      4026 MEMB     33       SAPS     H18X     HAL3     0.900000E-01   1.00800           0
      4027 MEMB     33       SAPS     H18Y     HAL3     0.900000E-01   1.00800           0
      4028 MEMB     33       SAPS     H18Z     HAL3     0.900000E-01   1.00800           0
      4029 MEMB     34       CHL1     C3       CRL1     0.140000       12.0110           0
      4030 MEMB     34       CHL1     H3       HGA1     0.900000E-01   1.00800           0
      4031 MEMB     34       CHL1     O3       OHL     -0.660000       15.9994           0
      4032 MEMB     34       CHL1     H3'      HOL      0.430000       1.00800           0
      4033 MEMB     34       CHL1     C4       CRL2    -0.180000       12.0110           0
      4034 MEMB     34       CHL1     H4A      HGA2     0.900000E-01   1.00800           0
      4035 MEMB     34       CHL1     H4B      HGA2     0.900000E-01   1.00800           0
      4036 MEMB     34       CHL1     C5       CEL1      0.00000       12.0110           0
      4037 MEMB     34       CHL1     C6       CEL1    -0.150000       12.0110           0
      4038 MEMB     34       CHL1     H6       HEL1     0.150000       1.00800           0
      4039 MEMB     34       CHL1     C7       CRL2    -0.180000       12.0110           0
      4040 MEMB     34       CHL1     H7A      HGA2     0.900000E-01   1.00800           0
      4041 MEMB     34       CHL1     H7B      HGA2     0.900000E-01   1.00800           0
      4042 MEMB     34       CHL1     C8       CRL1    -0.900000E-01   12.0110           0
      4043 MEMB     34       CHL1     H8       HGA1     0.900000E-01   1.00800           0
      4044 MEMB     34       CHL1     C14      CRL1    -0.900000E-01   12.0110           0
      4045 MEMB     34       CHL1     H14      HGA1     0.900000E-01   1.00800           0
      4046 MEMB     34       CHL1     C15      CRL2    -0.180000       12.0110           0
      4047 MEMB     34       CHL1     H15A     HGA2     0.900000E-01   1.00800           0
      4048 MEMB     34       CHL1     H15B     HGA2     0.900000E-01   1.00800           0
      4049 MEMB     34       CHL1     C16      CRL2    -0.180000       12.0110           0
      4050 MEMB     34       CHL1     H16A     HGA2     0.900000E-01   1.00800           0
      4051 MEMB     34       CHL1     H16B     HGA2     0.900000E-01   1.00800           0
      4052 MEMB     34       CHL1     C17      CRL1    -0.900000E-01   12.0110           0
      4053 MEMB     34       CHL1     H17      HGA1     0.900000E-01   1.00800           0
      4054 MEMB     34       CHL1     C13      CRL1      0.00000       12.0110           0
      4055 MEMB     34       CHL1     C18      CTL3    -0.270000       12.0110           0
      4056 MEMB     34       CHL1     H18A     HAL3     0.900000E-01   1.00800           0
      4057 MEMB     34       CHL1     H18B     HAL3     0.900000E-01   1.00800           0
      4058 MEMB     34       CHL1     H18C     HAL3     0.900000E-01   1.00800           0
      4059 MEMB     34       CHL1     C12      CRL2    -0.180000       12.0110           0
      4060 MEMB     34       CHL1     H12A     HGA2     0.900000E-01   1.00800           0
      4061 MEMB     34       CHL1     H12B     HGA2     0.900000E-01   1.00800           0
      4062 MEMB     34       CHL1     C11      CRL2    -0.180000       12.0110           0
      4063 MEMB     34       CHL1     H11A     HGA2     0.900000E-01   1.00800           0
      4064 MEMB     34       CHL1     H11B     HGA2     0.900000E-01   1.00800           0
      4065 MEMB     34       CHL1     C9       CRL1    -0.900000E-01   12.0110           0
      4066 MEMB     34       CHL1     H9       HGA1     0.900000E-01   1.00800           0
      4067 MEMB     34       CHL1     C10      CRL1      0.00000       12.0110           0
      4068 MEMB     34       CHL1     C19      CTL3    -0.270000       12.0110           0
      4069 MEMB     34       CHL1     H19A     HAL3     0.900000E-01   1.00800           0
      4070 MEMB     34       CHL1     H19B     HAL3     0.900000E-01   1.00800           0
      4071 MEMB     34       CHL1     H19C     HAL3     0.900000E-01   1.00800           0
      4072 MEMB     34       CHL1     C1       CRL2    -0.180000       12.0110           0
      4073 MEMB     34       CHL1     H1A      HGA2     0.900000E-01   1.00800           0
      4074 MEMB     34       CHL1     H1B      HGA2     0.900000E-01   1.00800           0
      4075 MEMB     34       CHL1     C2       CRL2    -0.180000       12.0110           0
      4076 MEMB     34       CHL1     H2A      HGA2     0.900000E-01   1.00800           0
      4077 MEMB     34       CHL1     H2B      HGA2     0.900000E-01   1.00800           0
      4078 MEMB     34       CHL1     C20      CTL1    -0.900000E-01   12.0110           0
      4079 MEMB     34       CHL1     H20      HAL1     0.900000E-01   1.00800           0
      4080 MEMB     34       CHL1     C21      CTL3    -0.270000       12.0110           0
      4081 MEMB     34       CHL1     H21A     HAL3     0.900000E-01   1.00800           0
      4082 MEMB     34       CHL1     H21B     HAL3     0.900000E-01   1.00800           0
      4083 MEMB     34       CHL1     H21C     HAL3     0.900000E-01   1.00800           0
      4084 MEMB     34       CHL1     C22      CTL2    -0.180000       12.0110           0
      4085 MEMB     34       CHL1     H22A     HAL2     0.900000E-01   1.00800           0
      4086 MEMB     34       CHL1     H22B     HAL2     0.900000E-01   1.00800           0
      4087 MEMB     34       CHL1     C23      CTL2    -0.180000       12.0110           0
      4088 MEMB     34       CHL1     H23A     HAL2     0.900000E-01   1.00800           0
      4089 MEMB     34       CHL1     H23B     HAL2     0.900000E-01   1.00800           0
      4090 MEMB     34       CHL1     C24      CTL2    -0.180000       12.0110           0
      4091 MEMB     34       CHL1     H24A     HAL2     0.900000E-01   1.00800           0
      4092 MEMB     34       CHL1     H24B     HAL2     0.900000E-01   1.00800           0
      4093 MEMB     34       CHL1     C25      CTL1    -0.900000E-01   12.0110           0
      4094 MEMB     34       CHL1     H25      HAL1     0.900000E-01   1.00800           0
      4095 MEMB     34       CHL1     C26      CTL3    -0.270000       12.0110           0
      4096 MEMB     34       CHL1     H26A     HAL3     0.900000E-01   1.00800           0
      4097 MEMB     34       CHL1     H26B     HAL3     0.900000E-01   1.00800           0
      4098 MEMB     34       CHL1     H26C     HAL3     0.900000E-01   1.00800           0
      4099 MEMB     34       CHL1     C27      CTL3    -0.270000       12.0110           0
      4100 MEMB     34       CHL1     H27A     HAL3     0.900000E-01   1.00800           0
      4101 MEMB     34       CHL1     H27B     HAL3     0.900000E-01   1.00800           0
      4102 MEMB     34       CHL1     H27C     HAL3     0.900000E-01   1.00800           0
      4103 MEMB     35       SAPE     N        NH3L    -0.300000       14.0070           0
      4104 MEMB     35       SAPE     HN1      HCL      0.330000       1.00800           0
      4105 MEMB     35       SAPE     HN2      HCL      0.330000       1.00800           0
      4106 MEMB     35       SAPE     HN3      HCL      0.330000       1.00800           0
      4107 MEMB     35       SAPE     C12      CTL2     0.130000       12.0110           0
      4108 MEMB     35       SAPE     H12A     HAL2     0.900000E-01   1.00800           0
      4109 MEMB     35       SAPE     H12B     HAL2     0.900000E-01   1.00800           0
      4110 MEMB     35       SAPE     C11      CTL2    -0.800000E-01   12.0110           0
      4111 MEMB     35       SAPE     H11A     HAL2     0.900000E-01   1.00800           0
      4112 MEMB     35       SAPE     H11B     HAL2     0.900000E-01   1.00800           0
      4113 MEMB     35       SAPE     P        PL        1.50000       30.9740           0
      4114 MEMB     35       SAPE     O13      O2L     -0.780000       15.9994           0
      4115 MEMB     35       SAPE     O14      O2L     -0.780000       15.9994           0
      4116 MEMB     35       SAPE     O12      OSLP    -0.570000       15.9994           0
      4117 MEMB     35       SAPE     O11      OSLP    -0.570000       15.9994           0
      4118 MEMB     35       SAPE     C1       CTL2    -0.800000E-01   12.0110           0
      4119 MEMB     35       SAPE     HA       HAL2     0.900000E-01   1.00800           0
      4120 MEMB     35       SAPE     HB       HAL2     0.900000E-01   1.00800           0
      4121 MEMB     35       SAPE     C2       CTL1     0.170000       12.0110           0
      4122 MEMB     35       SAPE     HS       HAL1     0.900000E-01   1.00800           0
      4123 MEMB     35       SAPE     O21      OSL     -0.490000       15.9994           0
      4124 MEMB     35       SAPE     C21      CL       0.900000       12.0110           0
      4125 MEMB     35       SAPE     O22      OBL     -0.630000       15.9994           0
      4126 MEMB     35       SAPE     C22      CTL2    -0.220000       12.0110           0
      4127 MEMB     35       SAPE     H2R      HAL2     0.900000E-01   1.00800           0
      4128 MEMB     35       SAPE     H2S      HAL2     0.900000E-01   1.00800           0
      4129 MEMB     35       SAPE     C3       CTL2     0.800000E-01   12.0110           0
      4130 MEMB     35       SAPE     HX       HAL2     0.900000E-01   1.00800           0
      4131 MEMB     35       SAPE     HY       HAL2     0.900000E-01   1.00800           0
      4132 MEMB     35       SAPE     O31      OSL     -0.490000       15.9994           0
      4133 MEMB     35       SAPE     C31      CL       0.900000       12.0110           0
      4134 MEMB     35       SAPE     O32      OBL     -0.630000       15.9994           0
      4135 MEMB     35       SAPE     C32      CTL2    -0.220000       12.0110           0
      4136 MEMB     35       SAPE     H2X      HAL2     0.900000E-01   1.00800           0
      4137 MEMB     35       SAPE     H2Y      HAL2     0.900000E-01   1.00800           0
      4138 MEMB     35       SAPE     C23      CTL2    -0.180000       12.0110           0
      4139 MEMB     35       SAPE     H3R      HAL2     0.900000E-01   1.00800           0
      4140 MEMB     35       SAPE     H3S      HAL2     0.900000E-01   1.00800           0
      4141 MEMB     35       SAPE     C24      CTL2    -0.180000       12.0110           0
      4142 MEMB     35       SAPE     H4R      HAL2     0.900000E-01   1.00800           0
      4143 MEMB     35       SAPE     H4S      HAL2     0.900000E-01   1.00800           0
      4144 MEMB     35       SAPE     C25      CEL1    -0.150000       12.0110           0
      4145 MEMB     35       SAPE     H5R      HEL1     0.150000       1.00800           0
      4146 MEMB     35       SAPE     C26      CEL1    -0.150000       12.0110           0
      4147 MEMB     35       SAPE     H6R      HEL1     0.150000       1.00800           0
      4148 MEMB     35       SAPE     C27      CTL2    -0.180000       12.0110           0
      4149 MEMB     35       SAPE     H7R      HAL2     0.900000E-01   1.00800           0
      4150 MEMB     35       SAPE     H7S      HAL2     0.900000E-01   1.00800           0
      4151 MEMB     35       SAPE     C28      CEL1    -0.150000       12.0110           0
      4152 MEMB     35       SAPE     H8R      HEL1     0.150000       1.00800           0
      4153 MEMB     35       SAPE     C29      CEL1    -0.150000       12.0110           0
      4154 MEMB     35       SAPE     H9R      HEL1     0.150000       1.00800           0
      4155 MEMB     35       SAPE     C210     CTL2    -0.180000       12.0110           0
      4156 MEMB     35       SAPE     H10R     HAL2     0.900000E-01   1.00800           0
      4157 MEMB     35       SAPE     H10S     HAL2     0.900000E-01   1.00800           0
      4158 MEMB     35       SAPE     C211     CEL1    -0.150000       12.0110           0
      4159 MEMB     35       SAPE     H11R     HEL1     0.150000       1.00800           0
      4160 MEMB     35       SAPE     C212     CEL1    -0.150000       12.0110           0
      4161 MEMB     35       SAPE     H12R     HEL1     0.150000       1.00800           0
      4162 MEMB     35       SAPE     C213     CTL2    -0.180000       12.0110           0
      4163 MEMB     35       SAPE     H13R     HAL2     0.900000E-01   1.00800           0
      4164 MEMB     35       SAPE     H13S     HAL2     0.900000E-01   1.00800           0
      4165 MEMB     35       SAPE     C214     CEL1    -0.150000       12.0110           0
      4166 MEMB     35       SAPE     H14R     HEL1     0.150000       1.00800           0
      4167 MEMB     35       SAPE     C215     CEL1    -0.150000       12.0110           0
      4168 MEMB     35       SAPE     H15R     HEL1     0.150000       1.00800           0
      4169 MEMB     35       SAPE     C216     CTL2    -0.180000       12.0110           0
      4170 MEMB     35       SAPE     H16R     HAL2     0.900000E-01   1.00800           0
      4171 MEMB     35       SAPE     H16S     HAL2     0.900000E-01   1.00800           0
      4172 MEMB     35       SAPE     C217     CTL2    -0.180000       12.0110           0
      4173 MEMB     35       SAPE     H17R     HAL2     0.900000E-01   1.00800           0
      4174 MEMB     35       SAPE     H17S     HAL2     0.900000E-01   1.00800           0
      4175 MEMB     35       SAPE     C218     CTL2    -0.180000       12.0110           0
      4176 MEMB     35       SAPE     H18R     HAL2     0.900000E-01   1.00800           0
      4177 MEMB     35       SAPE     H18S     HAL2     0.900000E-01   1.00800           0
      4178 MEMB     35       SAPE     C219     CTL2    -0.180000       12.0110           0
      4179 MEMB     35       SAPE     H19R     HAL2     0.900000E-01   1.00800           0
      4180 MEMB     35       SAPE     H19S     HAL2     0.900000E-01   1.00800           0
      4181 MEMB     35       SAPE     C220     CTL3    -0.270000       12.0110           0
      4182 MEMB     35       SAPE     H20R     HAL3     0.900000E-01   1.00800           0
      4183 MEMB     35       SAPE     H20S     HAL3     0.900000E-01   1.00800           0
      4184 MEMB     35       SAPE     H20T     HAL3     0.900000E-01   1.00800           0
      4185 MEMB     35       SAPE     C33      CTL2    -0.180000       12.0110           0
      4186 MEMB     35       SAPE     H3X      HAL2     0.900000E-01   1.00800           0
      4187 MEMB     35       SAPE     H3Y      HAL2     0.900000E-01   1.00800           0
      4188 MEMB     35       SAPE     C34      CTL2    -0.180000       12.0110           0
      4189 MEMB     35       SAPE     H4X      HAL2     0.900000E-01   1.00800           0
      4190 MEMB     35       SAPE     H4Y      HAL2     0.900000E-01   1.00800           0
      4191 MEMB     35       SAPE     C35      CTL2    -0.180000       12.0110           0
      4192 MEMB     35       SAPE     H5X      HAL2     0.900000E-01   1.00800           0
      4193 MEMB     35       SAPE     H5Y      HAL2     0.900000E-01   1.00800           0
      4194 MEMB     35       SAPE     C36      CTL2    -0.180000       12.0110           0
      4195 MEMB     35       SAPE     H6X      HAL2     0.900000E-01   1.00800           0
      4196 MEMB     35       SAPE     H6Y      HAL2     0.900000E-01   1.00800           0
      4197 MEMB     35       SAPE     C37      CTL2    -0.180000       12.0110           0
      4198 MEMB     35       SAPE     H7X      HAL2     0.900000E-01   1.00800           0
      4199 MEMB     35       SAPE     H7Y      HAL2     0.900000E-01   1.00800           0
      4200 MEMB     35       SAPE     C38      CTL2    -0.180000       12.0110           0
      4201 MEMB     35       SAPE     H8X      HAL2     0.900000E-01   1.00800           0
      4202 MEMB     35       SAPE     H8Y      HAL2     0.900000E-01   1.00800           0
      4203 MEMB     35       SAPE     C39      CTL2    -0.180000       12.0110           0
      4204 MEMB     35       SAPE     H9X      HAL2     0.900000E-01   1.00800           0
      4205 MEMB     35       SAPE     H9Y      HAL2     0.900000E-01   1.00800           0
      4206 MEMB     35       SAPE     C310     CTL2    -0.180000       12.0110           0
      4207 MEMB     35       SAPE     H10X     HAL2     0.900000E-01   1.00800           0
      4208 MEMB     35       SAPE     H10Y     HAL2     0.900000E-01   1.00800           0
      4209 MEMB     35       SAPE     C311     CTL2    -0.180000       12.0110           0
      4210 MEMB     35       SAPE     H11X     HAL2     0.900000E-01   1.00800           0
      4211 MEMB     35       SAPE     H11Y     HAL2     0.900000E-01   1.00800           0
      4212 MEMB     35       SAPE     C312     CTL2    -0.180000       12.0110           0
      4213 MEMB     35       SAPE     H12X     HAL2     0.900000E-01   1.00800           0
      4214 MEMB     35       SAPE     H12Y     HAL2     0.900000E-01   1.00800           0
      4215 MEMB     35       SAPE     C313     CTL2    -0.180000       12.0110           0
      4216 MEMB     35       SAPE     H13X     HAL2     0.900000E-01   1.00800           0
      4217 MEMB     35       SAPE     H13Y     HAL2     0.900000E-01   1.00800           0
      4218 MEMB     35       SAPE     C314     CTL2    -0.180000       12.0110           0
      4219 MEMB     35       SAPE     H14X     HAL2     0.900000E-01   1.00800           0
      4220 MEMB     35       SAPE     H14Y     HAL2     0.900000E-01   1.00800           0
      4221 MEMB     35       SAPE     C315     CTL2    -0.180000       12.0110           0
      4222 MEMB     35       SAPE     H15X     HAL2     0.900000E-01   1.00800           0
      4223 MEMB     35       SAPE     H15Y     HAL2     0.900000E-01   1.00800           0
      4224 MEMB     35       SAPE     C316     CTL2    -0.180000       12.0110           0
      4225 MEMB     35       SAPE     H16X     HAL2     0.900000E-01   1.00800           0
      4226 MEMB     35       SAPE     H16Y     HAL2     0.900000E-01   1.00800           0
      4227 MEMB     35       SAPE     C317     CTL2    -0.180000       12.0110           0
      4228 MEMB     35       SAPE     H17X     HAL2     0.900000E-01   1.00800           0
      4229 MEMB     35       SAPE     H17Y     HAL2     0.900000E-01   1.00800           0
      4230 MEMB     35       SAPE     C318     CTL3    -0.270000       12.0110           0
      4231 MEMB     35       SAPE     H18X     HAL3     0.900000E-01   1.00800           0
      4232 MEMB     35       SAPE     H18Y     HAL3     0.900000E-01   1.00800           0
      4233 MEMB     35       SAPE     H18Z     HAL3     0.900000E-01   1.00800           0
      4234 MEMB     36       SAPI     C12      CC3161   0.140000       12.0110           0
      4235 MEMB     36       SAPI     H2       HCA1     0.900000E-01   1.00800           0
      4236 MEMB     36       SAPI     O2       OC311   -0.650000       15.9994           0
      4237 MEMB     36       SAPI     HO2      HCP1     0.420000       1.00800           0
      4238 MEMB     36       SAPI     C13      CC3161   0.140000       12.0110           0
      4239 MEMB     36       SAPI     H3       HCA1     0.900000E-01   1.00800           0
      4240 MEMB     36       SAPI     O3       OC311   -0.650000       15.9994           0
      4241 MEMB     36       SAPI     HO3      HCP1     0.420000       1.00800           0
      4242 MEMB     36       SAPI     C14      CC3161   0.140000       12.0110           0
      4243 MEMB     36       SAPI     H4       HCA1     0.900000E-01   1.00800           0
      4244 MEMB     36       SAPI     O4       OC311   -0.650000       15.9994           0
      4245 MEMB     36       SAPI     HO4      HCP1     0.420000       1.00800           0
      4246 MEMB     36       SAPI     C15      CC3161   0.140000       12.0110           0
      4247 MEMB     36       SAPI     H5       HCA1     0.900000E-01   1.00800           0
      4248 MEMB     36       SAPI     O5       OC311   -0.650000       15.9994           0
      4249 MEMB     36       SAPI     HO5      HCP1     0.420000       1.00800           0
      4250 MEMB     36       SAPI     C16      CC3161   0.140000       12.0110           0
      4251 MEMB     36       SAPI     H6       HCA1     0.900000E-01   1.00800           0
      4252 MEMB     36       SAPI     O6       OC311   -0.650000       15.9994           0
      4253 MEMB     36       SAPI     HO6      HCP1     0.420000       1.00800           0
      4254 MEMB     36       SAPI     C11      CC3161  -0.800000E-01   12.0110           0
      4255 MEMB     36       SAPI     H1       HCA1     0.900000E-01   1.00800           0
      4256 MEMB     36       SAPI     P        PL        1.59000       30.9740           0
      4257 MEMB     36       SAPI     O13      O2L     -0.780000       15.9994           0
      4258 MEMB     36       SAPI     O14      O2L     -0.780000       15.9994           0
      4259 MEMB     36       SAPI     O12      OC30P   -0.570000       15.9994           0
      4260 MEMB     36       SAPI     O11      OSLP    -0.570000       15.9994           0
      4261 MEMB     36       SAPI     C1       CTL2    -0.800000E-01   12.0110           0
      4262 MEMB     36       SAPI     HA       HAL2     0.900000E-01   1.00800           0
      4263 MEMB     36       SAPI     HB       HAL2     0.900000E-01   1.00800           0
      4264 MEMB     36       SAPI     C2       CTL1     0.170000       12.0110           0
      4265 MEMB     36       SAPI     HS       HAL1     0.900000E-01   1.00800           0
      4266 MEMB     36       SAPI     O21      OSL     -0.490000       15.9994           0
      4267 MEMB     36       SAPI     C21      CL       0.900000       12.0110           0
      4268 MEMB     36       SAPI     O22      OBL     -0.630000       15.9994           0
      4269 MEMB     36       SAPI     C22      CTL2    -0.220000       12.0110           0
      4270 MEMB     36       SAPI     H2R      HAL2     0.900000E-01   1.00800           0
      4271 MEMB     36       SAPI     H2S      HAL2     0.900000E-01   1.00800           0
      4272 MEMB     36       SAPI     C3       CTL2     0.800000E-01   12.0110           0
      4273 MEMB     36       SAPI     HX       HAL2     0.900000E-01   1.00800           0
      4274 MEMB     36       SAPI     HY       HAL2     0.900000E-01   1.00800           0
      4275 MEMB     36       SAPI     O31      OSL     -0.490000       15.9994           0
      4276 MEMB     36       SAPI     C31      CL       0.900000       12.0110           0
      4277 MEMB     36       SAPI     O32      OBL     -0.630000       15.9994           0
      4278 MEMB     36       SAPI     C32      CTL2    -0.220000       12.0110           0
      4279 MEMB     36       SAPI     H2X      HAL2     0.900000E-01   1.00800           0
      4280 MEMB     36       SAPI     H2Y      HAL2     0.900000E-01   1.00800           0
      4281 MEMB     36       SAPI     C23      CTL2    -0.180000       12.0110           0
      4282 MEMB     36       SAPI     H3R      HAL2     0.900000E-01   1.00800           0
      4283 MEMB     36       SAPI     H3S      HAL2     0.900000E-01   1.00800           0
      4284 MEMB     36       SAPI     C24      CTL2    -0.180000       12.0110           0
      4285 MEMB     36       SAPI     H4R      HAL2     0.900000E-01   1.00800           0
      4286 MEMB     36       SAPI     H4S      HAL2     0.900000E-01   1.00800           0
      4287 MEMB     36       SAPI     C25      CEL1    -0.150000       12.0110           0
      4288 MEMB     36       SAPI     H5R      HEL1     0.150000       1.00800           0
      4289 MEMB     36       SAPI     C26      CEL1    -0.150000       12.0110           0
      4290 MEMB     36       SAPI     H6R      HEL1     0.150000       1.00800           0
      4291 MEMB     36       SAPI     C27      CTL2    -0.180000       12.0110           0
      4292 MEMB     36       SAPI     H7R      HAL2     0.900000E-01   1.00800           0
      4293 MEMB     36       SAPI     H7S      HAL2     0.900000E-01   1.00800           0
      4294 MEMB     36       SAPI     C28      CEL1    -0.150000       12.0110           0
      4295 MEMB     36       SAPI     H8R      HEL1     0.150000       1.00800           0
      4296 MEMB     36       SAPI     C29      CEL1    -0.150000       12.0110           0
      4297 MEMB     36       SAPI     H9R      HEL1     0.150000       1.00800           0
      4298 MEMB     36       SAPI     C210     CTL2    -0.180000       12.0110           0
      4299 MEMB     36       SAPI     H10R     HAL2     0.900000E-01   1.00800           0
      4300 MEMB     36       SAPI     H10S     HAL2     0.900000E-01   1.00800           0
      4301 MEMB     36       SAPI     C211     CEL1    -0.150000       12.0110           0
      4302 MEMB     36       SAPI     H11R     HEL1     0.150000       1.00800           0
      4303 MEMB     36       SAPI     C212     CEL1    -0.150000       12.0110           0
      4304 MEMB     36       SAPI     H12R     HEL1     0.150000       1.00800           0
      4305 MEMB     36       SAPI     C213     CTL2    -0.180000       12.0110           0
      4306 MEMB     36       SAPI     H13R     HAL2     0.900000E-01   1.00800           0
      4307 MEMB     36       SAPI     H13S     HAL2     0.900000E-01   1.00800           0
      4308 MEMB     36       SAPI     C214     CEL1    -0.150000       12.0110           0
      4309 MEMB     36       SAPI     H14R     HEL1     0.150000       1.00800           0
      4310 MEMB     36       SAPI     C215     CEL1    -0.150000       12.0110           0
      4311 MEMB     36       SAPI     H15R     HEL1     0.150000       1.00800           0
      4312 MEMB     36       SAPI     C216     CTL2    -0.180000       12.0110           0
      4313 MEMB     36       SAPI     H16R     HAL2     0.900000E-01   1.00800           0
      4314 MEMB     36       SAPI     H16S     HAL2     0.900000E-01   1.00800           0
      4315 MEMB     36       SAPI     C217     CTL2    -0.180000       12.0110           0
      4316 MEMB     36       SAPI     H17R     HAL2     0.900000E-01   1.00800           0
      4317 MEMB     36       SAPI     H17S     HAL2     0.900000E-01   1.00800           0
      4318 MEMB     36       SAPI     C218     CTL2    -0.180000       12.0110           0
      4319 MEMB     36       SAPI     H18R     HAL2     0.900000E-01   1.00800           0
      4320 MEMB     36       SAPI     H18S     HAL2     0.900000E-01   1.00800           0
      4321 MEMB     36       SAPI     C219     CTL2    -0.180000       12.0110           0
      4322 MEMB     36       SAPI     H19R     HAL2     0.900000E-01   1.00800           0
      4323 MEMB     36       SAPI     H19S     HAL2     0.900000E-01   1.00800           0
      4324 MEMB     36       SAPI     C220     CTL3    -0.270000       12.0110           0
      4325 MEMB     36       SAPI     H20R     HAL3     0.900000E-01   1.00800           0
      4326 MEMB     36       SAPI     H20S     HAL3     0.900000E-01   1.00800           0
      4327 MEMB     36       SAPI     H20T     HAL3     0.900000E-01   1.00800           0
      4328 MEMB     36       SAPI     C33      CTL2    -0.180000       12.0110           0
      4329 MEMB     36       SAPI     H3X      HAL2     0.900000E-01   1.00800           0
      4330 MEMB     36       SAPI     H3Y      HAL2     0.900000E-01   1.00800           0
      4331 MEMB     36       SAPI     C34      CTL2    -0.180000       12.0110           0
      4332 MEMB     36       SAPI     H4X      HAL2     0.900000E-01   1.00800           0
      4333 MEMB     36       SAPI     H4Y      HAL2     0.900000E-01   1.00800           0
      4334 MEMB     36       SAPI     C35      CTL2    -0.180000       12.0110           0
      4335 MEMB     36       SAPI     H5X      HAL2     0.900000E-01   1.00800           0
      4336 MEMB     36       SAPI     H5Y      HAL2     0.900000E-01   1.00800           0
      4337 MEMB     36       SAPI     C36      CTL2    -0.180000       12.0110           0
      4338 MEMB     36       SAPI     H6X      HAL2     0.900000E-01   1.00800           0
      4339 MEMB     36       SAPI     H6Y      HAL2     0.900000E-01   1.00800           0
      4340 MEMB     36       SAPI     C37      CTL2    -0.180000       12.0110           0
      4341 MEMB     36       SAPI     H7X      HAL2     0.900000E-01   1.00800           0
      4342 MEMB     36       SAPI     H7Y      HAL2     0.900000E-01   1.00800           0
      4343 MEMB     36       SAPI     C38      CTL2    -0.180000       12.0110           0
      4344 MEMB     36       SAPI     H8X      HAL2     0.900000E-01   1.00800           0
      4345 MEMB     36       SAPI     H8Y      HAL2     0.900000E-01   1.00800           0
      4346 MEMB     36       SAPI     C39      CTL2    -0.180000       12.0110           0
      4347 MEMB     36       SAPI     H9X      HAL2     0.900000E-01   1.00800           0
      4348 MEMB     36       SAPI     H9Y      HAL2     0.900000E-01   1.00800           0
      4349 MEMB     36       SAPI     C310     CTL2    -0.180000       12.0110           0
      4350 MEMB     36       SAPI     H10X     HAL2     0.900000E-01   1.00800           0
      4351 MEMB     36       SAPI     H10Y     HAL2     0.900000E-01   1.00800           0
      4352 MEMB     36       SAPI     C311     CTL2    -0.180000       12.0110           0
      4353 MEMB     36       SAPI     H11X     HAL2     0.900000E-01   1.00800           0
      4354 MEMB     36       SAPI     H11Y     HAL2     0.900000E-01   1.00800           0
      4355 MEMB     36       SAPI     C312     CTL2    -0.180000       12.0110           0
      4356 MEMB     36       SAPI     H12X     HAL2     0.900000E-01   1.00800           0
      4357 MEMB     36       SAPI     H12Y     HAL2     0.900000E-01   1.00800           0
      4358 MEMB     36       SAPI     C313     CTL2    -0.180000       12.0110           0
      4359 MEMB     36       SAPI     H13X     HAL2     0.900000E-01   1.00800           0
      4360 MEMB     36       SAPI     H13Y     HAL2     0.900000E-01   1.00800           0
      4361 MEMB     36       SAPI     C314     CTL2    -0.180000       12.0110           0
      4362 MEMB     36       SAPI     H14X     HAL2     0.900000E-01   1.00800           0
      4363 MEMB     36       SAPI     H14Y     HAL2     0.900000E-01   1.00800           0
      4364 MEMB     36       SAPI     C315     CTL2    -0.180000       12.0110           0
      4365 MEMB     36       SAPI     H15X     HAL2     0.900000E-01   1.00800           0
      4366 MEMB     36       SAPI     H15Y     HAL2     0.900000E-01   1.00800           0
      4367 MEMB     36       SAPI     C316     CTL2    -0.180000       12.0110           0
      4368 MEMB     36       SAPI     H16X     HAL2     0.900000E-01   1.00800           0
      4369 MEMB     36       SAPI     H16Y     HAL2     0.900000E-01   1.00800           0
      4370 MEMB     36       SAPI     C317     CTL2    -0.180000       12.0110           0
      4371 MEMB     36       SAPI     H17X     HAL2     0.900000E-01   1.00800           0
      4372 MEMB     36       SAPI     H17Y     HAL2     0.900000E-01   1.00800           0
      4373 MEMB     36       SAPI     C318     CTL3    -0.270000       12.0110           0
      4374 MEMB     36       SAPI     H18X     HAL3     0.900000E-01   1.00800           0
      4375 MEMB     36       SAPI     H18Y     HAL3     0.900000E-01   1.00800           0
      4376 MEMB     36       SAPI     H18Z     HAL3     0.900000E-01   1.00800           0
      4377 MEMB     37       SAPE     N        NH3L    -0.300000       14.0070           0
      4378 MEMB     37       SAPE     HN1      HCL      0.330000       1.00800           0
      4379 MEMB     37       SAPE     HN2      HCL      0.330000       1.00800           0
      4380 MEMB     37       SAPE     HN3      HCL      0.330000       1.00800           0
      4381 MEMB     37       SAPE     C12      CTL2     0.130000       12.0110           0
      4382 MEMB     37       SAPE     H12A     HAL2     0.900000E-01   1.00800           0
      4383 MEMB     37       SAPE     H12B     HAL2     0.900000E-01   1.00800           0
      4384 MEMB     37       SAPE     C11      CTL2    -0.800000E-01   12.0110           0
      4385 MEMB     37       SAPE     H11A     HAL2     0.900000E-01   1.00800           0
      4386 MEMB     37       SAPE     H11B     HAL2     0.900000E-01   1.00800           0
      4387 MEMB     37       SAPE     P        PL        1.50000       30.9740           0
      4388 MEMB     37       SAPE     O13      O2L     -0.780000       15.9994           0
      4389 MEMB     37       SAPE     O14      O2L     -0.780000       15.9994           0
      4390 MEMB     37       SAPE     O12      OSLP    -0.570000       15.9994           0
      4391 MEMB     37       SAPE     O11      OSLP    -0.570000       15.9994           0
      4392 MEMB     37       SAPE     C1       CTL2    -0.800000E-01   12.0110           0
      4393 MEMB     37       SAPE     HA       HAL2     0.900000E-01   1.00800           0
      4394 MEMB     37       SAPE     HB       HAL2     0.900000E-01   1.00800           0
      4395 MEMB     37       SAPE     C2       CTL1     0.170000       12.0110           0
      4396 MEMB     37       SAPE     HS       HAL1     0.900000E-01   1.00800           0
      4397 MEMB     37       SAPE     O21      OSL     -0.490000       15.9994           0
      4398 MEMB     37       SAPE     C21      CL       0.900000       12.0110           0
      4399 MEMB     37       SAPE     O22      OBL     -0.630000       15.9994           0
      4400 MEMB     37       SAPE     C22      CTL2    -0.220000       12.0110           0
      4401 MEMB     37       SAPE     H2R      HAL2     0.900000E-01   1.00800           0
      4402 MEMB     37       SAPE     H2S      HAL2     0.900000E-01   1.00800           0
      4403 MEMB     37       SAPE     C3       CTL2     0.800000E-01   12.0110           0
      4404 MEMB     37       SAPE     HX       HAL2     0.900000E-01   1.00800           0
      4405 MEMB     37       SAPE     HY       HAL2     0.900000E-01   1.00800           0
      4406 MEMB     37       SAPE     O31      OSL     -0.490000       15.9994           0
      4407 MEMB     37       SAPE     C31      CL       0.900000       12.0110           0
      4408 MEMB     37       SAPE     O32      OBL     -0.630000       15.9994           0
      4409 MEMB     37       SAPE     C32      CTL2    -0.220000       12.0110           0
      4410 MEMB     37       SAPE     H2X      HAL2     0.900000E-01   1.00800           0
      4411 MEMB     37       SAPE     H2Y      HAL2     0.900000E-01   1.00800           0
      4412 MEMB     37       SAPE     C23      CTL2    -0.180000       12.0110           0
      4413 MEMB     37       SAPE     H3R      HAL2     0.900000E-01   1.00800           0
      4414 MEMB     37       SAPE     H3S      HAL2     0.900000E-01   1.00800           0
      4415 MEMB     37       SAPE     C24      CTL2    -0.180000       12.0110           0
      4416 MEMB     37       SAPE     H4R      HAL2     0.900000E-01   1.00800           0
      4417 MEMB     37       SAPE     H4S      HAL2     0.900000E-01   1.00800           0
      4418 MEMB     37       SAPE     C25      CEL1    -0.150000       12.0110           0
      4419 MEMB     37       SAPE     H5R      HEL1     0.150000       1.00800           0
      4420 MEMB     37       SAPE     C26      CEL1    -0.150000       12.0110           0
      4421 MEMB     37       SAPE     H6R      HEL1     0.150000       1.00800           0
      4422 MEMB     37       SAPE     C27      CTL2    -0.180000       12.0110           0
      4423 MEMB     37       SAPE     H7R      HAL2     0.900000E-01   1.00800           0
      4424 MEMB     37       SAPE     H7S      HAL2     0.900000E-01   1.00800           0
      4425 MEMB     37       SAPE     C28      CEL1    -0.150000       12.0110           0
      4426 MEMB     37       SAPE     H8R      HEL1     0.150000       1.00800           0
      4427 MEMB     37       SAPE     C29      CEL1    -0.150000       12.0110           0
      4428 MEMB     37       SAPE     H9R      HEL1     0.150000       1.00800           0
      4429 MEMB     37       SAPE     C210     CTL2    -0.180000       12.0110           0
      4430 MEMB     37       SAPE     H10R     HAL2     0.900000E-01   1.00800           0
      4431 MEMB     37       SAPE     H10S     HAL2     0.900000E-01   1.00800           0
      4432 MEMB     37       SAPE     C211     CEL1    -0.150000       12.0110           0
      4433 MEMB     37       SAPE     H11R     HEL1     0.150000       1.00800           0
      4434 MEMB     37       SAPE     C212     CEL1    -0.150000       12.0110           0
      4435 MEMB     37       SAPE     H12R     HEL1     0.150000       1.00800           0
      4436 MEMB     37       SAPE     C213     CTL2    -0.180000       12.0110           0
      4437 MEMB     37       SAPE     H13R     HAL2     0.900000E-01   1.00800           0
      4438 MEMB     37       SAPE     H13S     HAL2     0.900000E-01   1.00800           0
      4439 MEMB     37       SAPE     C214     CEL1    -0.150000       12.0110           0
      4440 MEMB     37       SAPE     H14R     HEL1     0.150000       1.00800           0
      4441 MEMB     37       SAPE     C215     CEL1    -0.150000       12.0110           0
      4442 MEMB     37       SAPE     H15R     HEL1     0.150000       1.00800           0
      4443 MEMB     37       SAPE     C216     CTL2    -0.180000       12.0110           0
      4444 MEMB     37       SAPE     H16R     HAL2     0.900000E-01   1.00800           0
      4445 MEMB     37       SAPE     H16S     HAL2     0.900000E-01   1.00800           0
      4446 MEMB     37       SAPE     C217     CTL2    -0.180000       12.0110           0
      4447 MEMB     37       SAPE     H17R     HAL2     0.900000E-01   1.00800           0
      4448 MEMB     37       SAPE     H17S     HAL2     0.900000E-01   1.00800           0
      4449 MEMB     37       SAPE     C218     CTL2    -0.180000       12.0110           0
      4450 MEMB     37       SAPE     H18R     HAL2     0.900000E-01   1.00800           0
      4451 MEMB     37       SAPE     H18S     HAL2     0.900000E-01   1.00800           0
      4452 MEMB     37       SAPE     C219     CTL2    -0.180000       12.0110           0
      4453 MEMB     37       SAPE     H19R     HAL2     0.900000E-01   1.00800           0
      4454 MEMB     37       SAPE     H19S     HAL2     0.900000E-01   1.00800           0
      4455 MEMB     37       SAPE     C220     CTL3    -0.270000       12.0110           0
      4456 MEMB     37       SAPE     H20R     HAL3     0.900000E-01   1.00800           0
      4457 MEMB     37       SAPE     H20S     HAL3     0.900000E-01   1.00800           0
      4458 MEMB     37       SAPE     H20T     HAL3     0.900000E-01   1.00800           0
      4459 MEMB     37       SAPE     C33      CTL2    -0.180000       12.0110           0
      4460 MEMB     37       SAPE     H3X      HAL2     0.900000E-01   1.00800           0
      4461 MEMB     37       SAPE     H3Y      HAL2     0.900000E-01   1.00800           0
      4462 MEMB     37       SAPE     C34      CTL2    -0.180000       12.0110           0
      4463 MEMB     37       SAPE     H4X      HAL2     0.900000E-01   1.00800           0
      4464 MEMB     37       SAPE     H4Y      HAL2     0.900000E-01   1.00800           0
      4465 MEMB     37       SAPE     C35      CTL2    -0.180000       12.0110           0
      4466 MEMB     37       SAPE     H5X      HAL2     0.900000E-01   1.00800           0
      4467 MEMB     37       SAPE     H5Y      HAL2     0.900000E-01   1.00800           0
      4468 MEMB     37       SAPE     C36      CTL2    -0.180000       12.0110           0
      4469 MEMB     37       SAPE     H6X      HAL2     0.900000E-01   1.00800           0
      4470 MEMB     37       SAPE     H6Y      HAL2     0.900000E-01   1.00800           0
      4471 MEMB     37       SAPE     C37      CTL2    -0.180000       12.0110           0
      4472 MEMB     37       SAPE     H7X      HAL2     0.900000E-01   1.00800           0
      4473 MEMB     37       SAPE     H7Y      HAL2     0.900000E-01   1.00800           0
      4474 MEMB     37       SAPE     C38      CTL2    -0.180000       12.0110           0
      4475 MEMB     37       SAPE     H8X      HAL2     0.900000E-01   1.00800           0
      4476 MEMB     37       SAPE     H8Y      HAL2     0.900000E-01   1.00800           0
      4477 MEMB     37       SAPE     C39      CTL2    -0.180000       12.0110           0
      4478 MEMB     37       SAPE     H9X      HAL2     0.900000E-01   1.00800           0
      4479 MEMB     37       SAPE     H9Y      HAL2     0.900000E-01   1.00800           0
      4480 MEMB     37       SAPE     C310     CTL2    -0.180000       12.0110           0
      4481 MEMB     37       SAPE     H10X     HAL2     0.900000E-01   1.00800           0
      4482 MEMB     37       SAPE     H10Y     HAL2     0.900000E-01   1.00800           0
      4483 MEMB     37       SAPE     C311     CTL2    -0.180000       12.0110           0
      4484 MEMB     37       SAPE     H11X     HAL2     0.900000E-01   1.00800           0
      4485 MEMB     37       SAPE     H11Y     HAL2     0.900000E-01   1.00800           0
      4486 MEMB     37       SAPE     C312     CTL2    -0.180000       12.0110           0
      4487 MEMB     37       SAPE     H12X     HAL2     0.900000E-01   1.00800           0
      4488 MEMB     37       SAPE     H12Y     HAL2     0.900000E-01   1.00800           0
      4489 MEMB     37       SAPE     C313     CTL2    -0.180000       12.0110           0
      4490 MEMB     37       SAPE     H13X     HAL2     0.900000E-01   1.00800           0
      4491 MEMB     37       SAPE     H13Y     HAL2     0.900000E-01   1.00800           0
      4492 MEMB     37       SAPE     C314     CTL2    -0.180000       12.0110           0
      4493 MEMB     37       SAPE     H14X     HAL2     0.900000E-01   1.00800           0
      4494 MEMB     37       SAPE     H14Y     HAL2     0.900000E-01   1.00800           0
      4495 MEMB     37       SAPE     C315     CTL2    -0.180000       12.0110           0
      4496 MEMB     37       SAPE     H15X     HAL2     0.900000E-01   1.00800           0
      4497 MEMB     37       SAPE     H15Y     HAL2     0.900000E-01   1.00800           0
      4498 MEMB     37       SAPE     C316     CTL2    -0.180000       12.0110           0
      4499 MEMB     37       SAPE     H16X     HAL2     0.900000E-01   1.00800           0
      4500 MEMB     37       SAPE     H16Y     HAL2     0.900000E-01   1.00800           0
      4501 MEMB     37       SAPE     C317     CTL2    -0.180000       12.0110           0
      4502 MEMB     37       SAPE     H17X     HAL2     0.900000E-01   1.00800           0
      4503 MEMB     37       SAPE     H17Y     HAL2     0.900000E-01   1.00800           0
      4504 MEMB     37       SAPE     C318     CTL3    -0.270000       12.0110           0
      4505 MEMB     37       SAPE     H18X     HAL3     0.900000E-01   1.00800           0
      4506 MEMB     37       SAPE     H18Y     HAL3     0.900000E-01   1.00800           0
      4507 MEMB     37       SAPE     H18Z     HAL3     0.900000E-01   1.00800           0
      4508 MEMB     38       SAPE     N        NH3L    -0.300000       14.0070           0
      4509 MEMB     38       SAPE     HN1      HCL      0.330000       1.00800           0
      4510 MEMB     38       SAPE     HN2      HCL      0.330000       1.00800           0
      4511 MEMB     38       SAPE     HN3      HCL      0.330000       1.00800           0
      4512 MEMB     38       SAPE     C12      CTL2     0.130000       12.0110           0
      4513 MEMB     38       SAPE     H12A     HAL2     0.900000E-01   1.00800           0
      4514 MEMB     38       SAPE     H12B     HAL2     0.900000E-01   1.00800           0
      4515 MEMB     38       SAPE     C11      CTL2    -0.800000E-01   12.0110           0
      4516 MEMB     38       SAPE     H11A     HAL2     0.900000E-01   1.00800           0
      4517 MEMB     38       SAPE     H11B     HAL2     0.900000E-01   1.00800           0
      4518 MEMB     38       SAPE     P        PL        1.50000       30.9740           0
      4519 MEMB     38       SAPE     O13      O2L     -0.780000       15.9994           0
      4520 MEMB     38       SAPE     O14      O2L     -0.780000       15.9994           0
      4521 MEMB     38       SAPE     O12      OSLP    -0.570000       15.9994           0
      4522 MEMB     38       SAPE     O11      OSLP    -0.570000       15.9994           0
      4523 MEMB     38       SAPE     C1       CTL2    -0.800000E-01   12.0110           0
      4524 MEMB     38       SAPE     HA       HAL2     0.900000E-01   1.00800           0
      4525 MEMB     38       SAPE     HB       HAL2     0.900000E-01   1.00800           0
      4526 MEMB     38       SAPE     C2       CTL1     0.170000       12.0110           0
      4527 MEMB     38       SAPE     HS       HAL1     0.900000E-01   1.00800           0
      4528 MEMB     38       SAPE     O21      OSL     -0.490000       15.9994           0
      4529 MEMB     38       SAPE     C21      CL       0.900000       12.0110           0
      4530 MEMB     38       SAPE     O22      OBL     -0.630000       15.9994           0
      4531 MEMB     38       SAPE     C22      CTL2    -0.220000       12.0110           0
      4532 MEMB     38       SAPE     H2R      HAL2     0.900000E-01   1.00800           0
      4533 MEMB     38       SAPE     H2S      HAL2     0.900000E-01   1.00800           0
      4534 MEMB     38       SAPE     C3       CTL2     0.800000E-01   12.0110           0
      4535 MEMB     38       SAPE     HX       HAL2     0.900000E-01   1.00800           0
      4536 MEMB     38       SAPE     HY       HAL2     0.900000E-01   1.00800           0
      4537 MEMB     38       SAPE     O31      OSL     -0.490000       15.9994           0
      4538 MEMB     38       SAPE     C31      CL       0.900000       12.0110           0
      4539 MEMB     38       SAPE     O32      OBL     -0.630000       15.9994           0
      4540 MEMB     38       SAPE     C32      CTL2    -0.220000       12.0110           0
      4541 MEMB     38       SAPE     H2X      HAL2     0.900000E-01   1.00800           0
      4542 MEMB     38       SAPE     H2Y      HAL2     0.900000E-01   1.00800           0
      4543 MEMB     38       SAPE     C23      CTL2    -0.180000       12.0110           0
      4544 MEMB     38       SAPE     H3R      HAL2     0.900000E-01   1.00800           0
      4545 MEMB     38       SAPE     H3S      HAL2     0.900000E-01   1.00800           0
      4546 MEMB     38       SAPE     C24      CTL2    -0.180000       12.0110           0
      4547 MEMB     38       SAPE     H4R      HAL2     0.900000E-01   1.00800           0
      4548 MEMB     38       SAPE     H4S      HAL2     0.900000E-01   1.00800           0
      4549 MEMB     38       SAPE     C25      CEL1    -0.150000       12.0110           0
      4550 MEMB     38       SAPE     H5R      HEL1     0.150000       1.00800           0
      4551 MEMB     38       SAPE     C26      CEL1    -0.150000       12.0110           0
      4552 MEMB     38       SAPE     H6R      HEL1     0.150000       1.00800           0
      4553 MEMB     38       SAPE     C27      CTL2    -0.180000       12.0110           0
      4554 MEMB     38       SAPE     H7R      HAL2     0.900000E-01   1.00800           0
      4555 MEMB     38       SAPE     H7S      HAL2     0.900000E-01   1.00800           0
      4556 MEMB     38       SAPE     C28      CEL1    -0.150000       12.0110           0
      4557 MEMB     38       SAPE     H8R      HEL1     0.150000       1.00800           0
      4558 MEMB     38       SAPE     C29      CEL1    -0.150000       12.0110           0
      4559 MEMB     38       SAPE     H9R      HEL1     0.150000       1.00800           0
      4560 MEMB     38       SAPE     C210     CTL2    -0.180000       12.0110           0
      4561 MEMB     38       SAPE     H10R     HAL2     0.900000E-01   1.00800           0
      4562 MEMB     38       SAPE     H10S     HAL2     0.900000E-01   1.00800           0
      4563 MEMB     38       SAPE     C211     CEL1    -0.150000       12.0110           0
      4564 MEMB     38       SAPE     H11R     HEL1     0.150000       1.00800           0
      4565 MEMB     38       SAPE     C212     CEL1    -0.150000       12.0110           0
      4566 MEMB     38       SAPE     H12R     HEL1     0.150000       1.00800           0
      4567 MEMB     38       SAPE     C213     CTL2    -0.180000       12.0110           0
      4568 MEMB     38       SAPE     H13R     HAL2     0.900000E-01   1.00800           0
      4569 MEMB     38       SAPE     H13S     HAL2     0.900000E-01   1.00800           0
      4570 MEMB     38       SAPE     C214     CEL1    -0.150000       12.0110           0
      4571 MEMB     38       SAPE     H14R     HEL1     0.150000       1.00800           0
      4572 MEMB     38       SAPE     C215     CEL1    -0.150000       12.0110           0
      4573 MEMB     38       SAPE     H15R     HEL1     0.150000       1.00800           0
      4574 MEMB     38       SAPE     C216     CTL2    -0.180000       12.0110           0
      4575 MEMB     38       SAPE     H16R     HAL2     0.900000E-01   1.00800           0
      4576 MEMB     38       SAPE     H16S     HAL2     0.900000E-01   1.00800           0
      4577 MEMB     38       SAPE     C217     CTL2    -0.180000       12.0110           0
      4578 MEMB     38       SAPE     H17R     HAL2     0.900000E-01   1.00800           0
      4579 MEMB     38       SAPE     H17S     HAL2     0.900000E-01   1.00800           0
      4580 MEMB     38       SAPE     C218     CTL2    -0.180000       12.0110           0
      4581 MEMB     38       SAPE     H18R     HAL2     0.900000E-01   1.00800           0
      4582 MEMB     38       SAPE     H18S     HAL2     0.900000E-01   1.00800           0
      4583 MEMB     38       SAPE     C219     CTL2    -0.180000       12.0110           0
      4584 MEMB     38       SAPE     H19R     HAL2     0.900000E-01   1.00800           0
      4585 MEMB     38       SAPE     H19S     HAL2     0.900000E-01   1.00800           0
      4586 MEMB     38       SAPE     C220     CTL3    -0.270000       12.0110           0
      4587 MEMB     38       SAPE     H20R     HAL3     0.900000E-01   1.00800           0
      4588 MEMB     38       SAPE     H20S     HAL3     0.900000E-01   1.00800           0
      4589 MEMB     38       SAPE     H20T     HAL3     0.900000E-01   1.00800           0
      4590 MEMB     38       SAPE     C33      CTL2    -0.180000       12.0110           0
      4591 MEMB     38       SAPE     H3X      HAL2     0.900000E-01   1.00800           0
      4592 MEMB     38       SAPE     H3Y      HAL2     0.900000E-01   1.00800           0
      4593 MEMB     38       SAPE     C34      CTL2    -0.180000       12.0110           0
      4594 MEMB     38       SAPE     H4X      HAL2     0.900000E-01   1.00800           0
      4595 MEMB     38       SAPE     H4Y      HAL2     0.900000E-01   1.00800           0
      4596 MEMB     38       SAPE     C35      CTL2    -0.180000       12.0110           0
      4597 MEMB     38       SAPE     H5X      HAL2     0.900000E-01   1.00800           0
      4598 MEMB     38       SAPE     H5Y      HAL2     0.900000E-01   1.00800           0
      4599 MEMB     38       SAPE     C36      CTL2    -0.180000       12.0110           0
      4600 MEMB     38       SAPE     H6X      HAL2     0.900000E-01   1.00800           0
      4601 MEMB     38       SAPE     H6Y      HAL2     0.900000E-01   1.00800           0
      4602 MEMB     38       SAPE     C37      CTL2    -0.180000       12.0110           0
      4603 MEMB     38       SAPE     H7X      HAL2     0.900000E-01   1.00800           0
      4604 MEMB     38       SAPE     H7Y      HAL2     0.900000E-01   1.00800           0
      4605 MEMB     38       SAPE     C38      CTL2    -0.180000       12.0110           0
      4606 MEMB     38       SAPE     H8X      HAL2     0.900000E-01   1.00800           0
      4607 MEMB     38       SAPE     H8Y      HAL2     0.900000E-01   1.00800           0
      4608 MEMB     38       SAPE     C39      CTL2    -0.180000       12.0110           0
      4609 MEMB     38       SAPE     H9X      HAL2     0.900000E-01   1.00800           0
      4610 MEMB     38       SAPE     H9Y      HAL2     0.900000E-01   1.00800           0
      4611 MEMB     38       SAPE     C310     CTL2    -0.180000       12.0110           0
      4612 MEMB     38       SAPE     H10X     HAL2     0.900000E-01   1.00800           0
      4613 MEMB     38       SAPE     H10Y     HAL2     0.900000E-01   1.00800           0
      4614 MEMB     38       SAPE     C311     CTL2    -0.180000       12.0110           0
      4615 MEMB     38       SAPE     H11X     HAL2     0.900000E-01   1.00800           0
      4616 MEMB     38       SAPE     H11Y     HAL2     0.900000E-01   1.00800           0
      4617 MEMB     38       SAPE     C312     CTL2    -0.180000       12.0110           0
      4618 MEMB     38       SAPE     H12X     HAL2     0.900000E-01   1.00800           0
      4619 MEMB     38       SAPE     H12Y     HAL2     0.900000E-01   1.00800           0
      4620 MEMB     38       SAPE     C313     CTL2    -0.180000       12.0110           0
      4621 MEMB     38       SAPE     H13X     HAL2     0.900000E-01   1.00800           0
      4622 MEMB     38       SAPE     H13Y     HAL2     0.900000E-01   1.00800           0
      4623 MEMB     38       SAPE     C314     CTL2    -0.180000       12.0110           0
      4624 MEMB     38       SAPE     H14X     HAL2     0.900000E-01   1.00800           0
      4625 MEMB     38       SAPE     H14Y     HAL2     0.900000E-01   1.00800           0
      4626 MEMB     38       SAPE     C315     CTL2    -0.180000       12.0110           0
      4627 MEMB     38       SAPE     H15X     HAL2     0.900000E-01   1.00800           0
      4628 MEMB     38       SAPE     H15Y     HAL2     0.900000E-01   1.00800           0
      4629 MEMB     38       SAPE     C316     CTL2    -0.180000       12.0110           0
      4630 MEMB     38       SAPE     H16X     HAL2     0.900000E-01   1.00800           0
      4631 MEMB     38       SAPE     H16Y     HAL2     0.900000E-01   1.00800           0
      4632 MEMB     38       SAPE     C317     CTL2    -0.180000       12.0110           0
      4633 MEMB     38       SAPE     H17X     HAL2     0.900000E-01   1.00800           0
      4634 MEMB     38       SAPE     H17Y     HAL2     0.900000E-01   1.00800           0
      4635 MEMB     38       SAPE     C318     CTL3    -0.270000       12.0110           0
      4636 MEMB     38       SAPE     H18X     HAL3     0.900000E-01   1.00800           0
      4637 MEMB     38       SAPE     H18Y     HAL3     0.900000E-01   1.00800           0
      4638 MEMB     38       SAPE     H18Z     HAL3     0.900000E-01   1.00800           0
      4639 MEMB     39       CHL1     C3       CRL1     0.140000       12.0110           0
      4640 MEMB     39       CHL1     H3       HGA1     0.900000E-01   1.00800           0
      4641 MEMB     39       CHL1     O3       OHL     -0.660000       15.9994           0
      4642 MEMB     39       CHL1     H3'      HOL      0.430000       1.00800           0
      4643 MEMB     39       CHL1     C4       CRL2    -0.180000       12.0110           0
      4644 MEMB     39       CHL1     H4A      HGA2     0.900000E-01   1.00800           0
      4645 MEMB     39       CHL1     H4B      HGA2     0.900000E-01   1.00800           0
      4646 MEMB     39       CHL1     C5       CEL1      0.00000       12.0110           0
      4647 MEMB     39       CHL1     C6       CEL1    -0.150000       12.0110           0
      4648 MEMB     39       CHL1     H6       HEL1     0.150000       1.00800           0
      4649 MEMB     39       CHL1     C7       CRL2    -0.180000       12.0110           0
      4650 MEMB     39       CHL1     H7A      HGA2     0.900000E-01   1.00800           0
      4651 MEMB     39       CHL1     H7B      HGA2     0.900000E-01   1.00800           0
      4652 MEMB     39       CHL1     C8       CRL1    -0.900000E-01   12.0110           0
      4653 MEMB     39       CHL1     H8       HGA1     0.900000E-01   1.00800           0
      4654 MEMB     39       CHL1     C14      CRL1    -0.900000E-01   12.0110           0
      4655 MEMB     39       CHL1     H14      HGA1     0.900000E-01   1.00800           0
      4656 MEMB     39       CHL1     C15      CRL2    -0.180000       12.0110           0
      4657 MEMB     39       CHL1     H15A     HGA2     0.900000E-01   1.00800           0
      4658 MEMB     39       CHL1     H15B     HGA2     0.900000E-01   1.00800           0
      4659 MEMB     39       CHL1     C16      CRL2    -0.180000       12.0110           0
      4660 MEMB     39       CHL1     H16A     HGA2     0.900000E-01   1.00800           0
      4661 MEMB     39       CHL1     H16B     HGA2     0.900000E-01   1.00800           0
      4662 MEMB     39       CHL1     C17      CRL1    -0.900000E-01   12.0110           0
      4663 MEMB     39       CHL1     H17      HGA1     0.900000E-01   1.00800           0
      4664 MEMB     39       CHL1     C13      CRL1      0.00000       12.0110           0
      4665 MEMB     39       CHL1     C18      CTL3    -0.270000       12.0110           0
      4666 MEMB     39       CHL1     H18A     HAL3     0.900000E-01   1.00800           0
      4667 MEMB     39       CHL1     H18B     HAL3     0.900000E-01   1.00800           0
      4668 MEMB     39       CHL1     H18C     HAL3     0.900000E-01   1.00800           0
      4669 MEMB     39       CHL1     C12      CRL2    -0.180000       12.0110           0
      4670 MEMB     39       CHL1     H12A     HGA2     0.900000E-01   1.00800           0
      4671 MEMB     39       CHL1     H12B     HGA2     0.900000E-01   1.00800           0
      4672 MEMB     39       CHL1     C11      CRL2    -0.180000       12.0110           0
      4673 MEMB     39       CHL1     H11A     HGA2     0.900000E-01   1.00800           0
      4674 MEMB     39       CHL1     H11B     HGA2     0.900000E-01   1.00800           0
      4675 MEMB     39       CHL1     C9       CRL1    -0.900000E-01   12.0110           0
      4676 MEMB     39       CHL1     H9       HGA1     0.900000E-01   1.00800           0
      4677 MEMB     39       CHL1     C10      CRL1      0.00000       12.0110           0
      4678 MEMB     39       CHL1     C19      CTL3    -0.270000       12.0110           0
      4679 MEMB     39       CHL1     H19A     HAL3     0.900000E-01   1.00800           0
      4680 MEMB     39       CHL1     H19B     HAL3     0.900000E-01   1.00800           0
      4681 MEMB     39       CHL1     H19C     HAL3     0.900000E-01   1.00800           0
      4682 MEMB     39       CHL1     C1       CRL2    -0.180000       12.0110           0
      4683 MEMB     39       CHL1     H1A      HGA2     0.900000E-01   1.00800           0
      4684 MEMB     39       CHL1     H1B      HGA2     0.900000E-01   1.00800           0
      4685 MEMB     39       CHL1     C2       CRL2    -0.180000       12.0110           0
      4686 MEMB     39       CHL1     H2A      HGA2     0.900000E-01   1.00800           0
      4687 MEMB     39       CHL1     H2B      HGA2     0.900000E-01   1.00800           0
      4688 MEMB     39       CHL1     C20      CTL1    -0.900000E-01   12.0110           0
      4689 MEMB     39       CHL1     H20      HAL1     0.900000E-01   1.00800           0
      4690 MEMB     39       CHL1     C21      CTL3    -0.270000       12.0110           0
      4691 MEMB     39       CHL1     H21A     HAL3     0.900000E-01   1.00800           0
      4692 MEMB     39       CHL1     H21B     HAL3     0.900000E-01   1.00800           0
      4693 MEMB     39       CHL1     H21C     HAL3     0.900000E-01   1.00800           0
      4694 MEMB     39       CHL1     C22      CTL2    -0.180000       12.0110           0
      4695 MEMB     39       CHL1     H22A     HAL2     0.900000E-01   1.00800           0
      4696 MEMB     39       CHL1     H22B     HAL2     0.900000E-01   1.00800           0
      4697 MEMB     39       CHL1     C23      CTL2    -0.180000       12.0110           0
      4698 MEMB     39       CHL1     H23A     HAL2     0.900000E-01   1.00800           0
      4699 MEMB     39       CHL1     H23B     HAL2     0.900000E-01   1.00800           0
      4700 MEMB     39       CHL1     C24      CTL2    -0.180000       12.0110           0
      4701 MEMB     39       CHL1     H24A     HAL2     0.900000E-01   1.00800           0
      4702 MEMB     39       CHL1     H24B     HAL2     0.900000E-01   1.00800           0
      4703 MEMB     39       CHL1     C25      CTL1    -0.900000E-01   12.0110           0
      4704 MEMB     39       CHL1     H25      HAL1     0.900000E-01   1.00800           0
      4705 MEMB     39       CHL1     C26      CTL3    -0.270000       12.0110           0
      4706 MEMB     39       CHL1     H26A     HAL3     0.900000E-01   1.00800           0
      4707 MEMB     39       CHL1     H26B     HAL3     0.900000E-01   1.00800           0
      4708 MEMB     39       CHL1     H26C     HAL3     0.900000E-01   1.00800           0
      4709 MEMB     39       CHL1     C27      CTL3    -0.270000       12.0110           0
      4710 MEMB     39       CHL1     H27A     HAL3     0.900000E-01   1.00800           0
      4711 MEMB     39       CHL1     H27B     HAL3     0.900000E-01   1.00800           0
      4712 MEMB     39       CHL1     H27C     HAL3     0.900000E-01   1.00800           0
      4713 MEMB     40       SAPE     N        NH3L    -0.300000       14.0070           0
      4714 MEMB     40       SAPE     HN1      HCL      0.330000       1.00800           0
      4715 MEMB     40       SAPE     HN2      HCL      0.330000       1.00800           0
      4716 MEMB     40       SAPE     HN3      HCL      0.330000       1.00800           0
      4717 MEMB     40       SAPE     C12      CTL2     0.130000       12.0110           0
      4718 MEMB     40       SAPE     H12A     HAL2     0.900000E-01   1.00800           0
      4719 MEMB     40       SAPE     H12B     HAL2     0.900000E-01   1.00800           0
      4720 MEMB     40       SAPE     C11      CTL2    -0.800000E-01   12.0110           0
      4721 MEMB     40       SAPE     H11A     HAL2     0.900000E-01   1.00800           0
      4722 MEMB     40       SAPE     H11B     HAL2     0.900000E-01   1.00800           0
      4723 MEMB     40       SAPE     P        PL        1.50000       30.9740           0
      4724 MEMB     40       SAPE     O13      O2L     -0.780000       15.9994           0
      4725 MEMB     40       SAPE     O14      O2L     -0.780000       15.9994           0
      4726 MEMB     40       SAPE     O12      OSLP    -0.570000       15.9994           0
      4727 MEMB     40       SAPE     O11      OSLP    -0.570000       15.9994           0
      4728 MEMB     40       SAPE     C1       CTL2    -0.800000E-01   12.0110           0
      4729 MEMB     40       SAPE     HA       HAL2     0.900000E-01   1.00800           0
      4730 MEMB     40       SAPE     HB       HAL2     0.900000E-01   1.00800           0
      4731 MEMB     40       SAPE     C2       CTL1     0.170000       12.0110           0
      4732 MEMB     40       SAPE     HS       HAL1     0.900000E-01   1.00800           0
      4733 MEMB     40       SAPE     O21      OSL     -0.490000       15.9994           0
      4734 MEMB     40       SAPE     C21      CL       0.900000       12.0110           0
      4735 MEMB     40       SAPE     O22      OBL     -0.630000       15.9994           0
      4736 MEMB     40       SAPE     C22      CTL2    -0.220000       12.0110           0
      4737 MEMB     40       SAPE     H2R      HAL2     0.900000E-01   1.00800           0
      4738 MEMB     40       SAPE     H2S      HAL2     0.900000E-01   1.00800           0
      4739 MEMB     40       SAPE     C3       CTL2     0.800000E-01   12.0110           0
      4740 MEMB     40       SAPE     HX       HAL2     0.900000E-01   1.00800           0
      4741 MEMB     40       SAPE     HY       HAL2     0.900000E-01   1.00800           0
      4742 MEMB     40       SAPE     O31      OSL     -0.490000       15.9994           0
      4743 MEMB     40       SAPE     C31      CL       0.900000       12.0110           0
      4744 MEMB     40       SAPE     O32      OBL     -0.630000       15.9994           0
      4745 MEMB     40       SAPE     C32      CTL2    -0.220000       12.0110           0
      4746 MEMB     40       SAPE     H2X      HAL2     0.900000E-01   1.00800           0
      4747 MEMB     40       SAPE     H2Y      HAL2     0.900000E-01   1.00800           0
      4748 MEMB     40       SAPE     C23      CTL2    -0.180000       12.0110           0
      4749 MEMB     40       SAPE     H3R      HAL2     0.900000E-01   1.00800           0
      4750 MEMB     40       SAPE     H3S      HAL2     0.900000E-01   1.00800           0
      4751 MEMB     40       SAPE     C24      CTL2    -0.180000       12.0110           0
      4752 MEMB     40       SAPE     H4R      HAL2     0.900000E-01   1.00800           0
      4753 MEMB     40       SAPE     H4S      HAL2     0.900000E-01   1.00800           0
      4754 MEMB     40       SAPE     C25      CEL1    -0.150000       12.0110           0
      4755 MEMB     40       SAPE     H5R      HEL1     0.150000       1.00800           0
      4756 MEMB     40       SAPE     C26      CEL1    -0.150000       12.0110           0
      4757 MEMB     40       SAPE     H6R      HEL1     0.150000       1.00800           0
      4758 MEMB     40       SAPE     C27      CTL2    -0.180000       12.0110           0
      4759 MEMB     40       SAPE     H7R      HAL2     0.900000E-01   1.00800           0
      4760 MEMB     40       SAPE     H7S      HAL2     0.900000E-01   1.00800           0
      4761 MEMB     40       SAPE     C28      CEL1    -0.150000       12.0110           0
      4762 MEMB     40       SAPE     H8R      HEL1     0.150000       1.00800           0
      4763 MEMB     40       SAPE     C29      CEL1    -0.150000       12.0110           0
      4764 MEMB     40       SAPE     H9R      HEL1     0.150000       1.00800           0
      4765 MEMB     40       SAPE     C210     CTL2    -0.180000       12.0110           0
      4766 MEMB     40       SAPE     H10R     HAL2     0.900000E-01   1.00800           0
      4767 MEMB     40       SAPE     H10S     HAL2     0.900000E-01   1.00800           0
      4768 MEMB     40       SAPE     C211     CEL1    -0.150000       12.0110           0
      4769 MEMB     40       SAPE     H11R     HEL1     0.150000       1.00800           0
      4770 MEMB     40       SAPE     C212     CEL1    -0.150000       12.0110           0
      4771 MEMB     40       SAPE     H12R     HEL1     0.150000       1.00800           0
      4772 MEMB     40       SAPE     C213     CTL2    -0.180000       12.0110           0
      4773 MEMB     40       SAPE     H13R     HAL2     0.900000E-01   1.00800           0
      4774 MEMB     40       SAPE     H13S     HAL2     0.900000E-01   1.00800           0
      4775 MEMB     40       SAPE     C214     CEL1    -0.150000       12.0110           0
      4776 MEMB     40       SAPE     H14R     HEL1     0.150000       1.00800           0
      4777 MEMB     40       SAPE     C215     CEL1    -0.150000       12.0110           0
      4778 MEMB     40       SAPE     H15R     HEL1     0.150000       1.00800           0
      4779 MEMB     40       SAPE     C216     CTL2    -0.180000       12.0110           0
      4780 MEMB     40       SAPE     H16R     HAL2     0.900000E-01   1.00800           0
      4781 MEMB     40       SAPE     H16S     HAL2     0.900000E-01   1.00800           0
      4782 MEMB     40       SAPE     C217     CTL2    -0.180000       12.0110           0
      4783 MEMB     40       SAPE     H17R     HAL2     0.900000E-01   1.00800           0
      4784 MEMB     40       SAPE     H17S     HAL2     0.900000E-01   1.00800           0
      4785 MEMB     40       SAPE     C218     CTL2    -0.180000       12.0110           0
      4786 MEMB     40       SAPE     H18R     HAL2     0.900000E-01   1.00800           0
      4787 MEMB     40       SAPE     H18S     HAL2     0.900000E-01   1.00800           0
      4788 MEMB     40       SAPE     C219     CTL2    -0.180000       12.0110           0
      4789 MEMB     40       SAPE     H19R     HAL2     0.900000E-01   1.00800           0
      4790 MEMB     40       SAPE     H19S     HAL2     0.900000E-01   1.00800           0
      4791 MEMB     40       SAPE     C220     CTL3    -0.270000       12.0110           0
      4792 MEMB     40       SAPE     H20R     HAL3     0.900000E-01   1.00800           0
      4793 MEMB     40       SAPE     H20S     HAL3     0.900000E-01   1.00800           0
      4794 MEMB     40       SAPE     H20T     HAL3     0.900000E-01   1.00800           0
      4795 MEMB     40       SAPE     C33      CTL2    -0.180000       12.0110           0
      4796 MEMB     40       SAPE     H3X      HAL2     0.900000E-01   1.00800           0
      4797 MEMB     40       SAPE     H3Y      HAL2     0.900000E-01   1.00800           0
      4798 MEMB     40       SAPE     C34      CTL2    -0.180000       12.0110           0
      4799 MEMB     40       SAPE     H4X      HAL2     0.900000E-01   1.00800           0
      4800 MEMB     40       SAPE     H4Y      HAL2     0.900000E-01   1.00800           0
      4801 MEMB     40       SAPE     C35      CTL2    -0.180000       12.0110           0
      4802 MEMB     40       SAPE     H5X      HAL2     0.900000E-01   1.00800           0
      4803 MEMB     40       SAPE     H5Y      HAL2     0.900000E-01   1.00800           0
      4804 MEMB     40       SAPE     C36      CTL2    -0.180000       12.0110           0
      4805 MEMB     40       SAPE     H6X      HAL2     0.900000E-01   1.00800           0
      4806 MEMB     40       SAPE     H6Y      HAL2     0.900000E-01   1.00800           0
      4807 MEMB     40       SAPE     C37      CTL2    -0.180000       12.0110           0
      4808 MEMB     40       SAPE     H7X      HAL2     0.900000E-01   1.00800           0
      4809 MEMB     40       SAPE     H7Y      HAL2     0.900000E-01   1.00800           0
      4810 MEMB     40       SAPE     C38      CTL2    -0.180000       12.0110           0
      4811 MEMB     40       SAPE     H8X      HAL2     0.900000E-01   1.00800           0
      4812 MEMB     40       SAPE     H8Y      HAL2     0.900000E-01   1.00800           0
      4813 MEMB     40       SAPE     C39      CTL2    -0.180000       12.0110           0
      4814 MEMB     40       SAPE     H9X      HAL2     0.900000E-01   1.00800           0
      4815 MEMB     40       SAPE     H9Y      HAL2     0.900000E-01   1.00800           0
      4816 MEMB     40       SAPE     C310     CTL2    -0.180000       12.0110           0
      4817 MEMB     40       SAPE     H10X     HAL2     0.900000E-01   1.00800           0
      4818 MEMB     40       SAPE     H10Y     HAL2     0.900000E-01   1.00800           0
      4819 MEMB     40       SAPE     C311     CTL2    -0.180000       12.0110           0
      4820 MEMB     40       SAPE     H11X     HAL2     0.900000E-01   1.00800           0
      4821 MEMB     40       SAPE     H11Y     HAL2     0.900000E-01   1.00800           0
      4822 MEMB     40       SAPE     C312     CTL2    -0.180000       12.0110           0
      4823 MEMB     40       SAPE     H12X     HAL2     0.900000E-01   1.00800           0
      4824 MEMB     40       SAPE     H12Y     HAL2     0.900000E-01   1.00800           0
      4825 MEMB     40       SAPE     C313     CTL2    -0.180000       12.0110           0
      4826 MEMB     40       SAPE     H13X     HAL2     0.900000E-01   1.00800           0
      4827 MEMB     40       SAPE     H13Y     HAL2     0.900000E-01   1.00800           0
      4828 MEMB     40       SAPE     C314     CTL2    -0.180000       12.0110           0
      4829 MEMB     40       SAPE     H14X     HAL2     0.900000E-01   1.00800           0
      4830 MEMB     40       SAPE     H14Y     HAL2     0.900000E-01   1.00800           0
      4831 MEMB     40       SAPE     C315     CTL2    -0.180000       12.0110           0
      4832 MEMB     40       SAPE     H15X     HAL2     0.900000E-01   1.00800           0
      4833 MEMB     40       SAPE     H15Y     HAL2     0.900000E-01   1.00800           0
      4834 MEMB     40       SAPE     C316     CTL2    -0.180000       12.0110           0
      4835 MEMB     40       SAPE     H16X     HAL2     0.900000E-01   1.00800           0
      4836 MEMB     40       SAPE     H16Y     HAL2     0.900000E-01   1.00800           0
      4837 MEMB     40       SAPE     C317     CTL2    -0.180000       12.0110           0
      4838 MEMB     40       SAPE     H17X     HAL2     0.900000E-01   1.00800           0
      4839 MEMB     40       SAPE     H17Y     HAL2     0.900000E-01   1.00800           0
      4840 MEMB     40       SAPE     C318     CTL3    -0.270000       12.0110           0
      4841 MEMB     40       SAPE     H18X     HAL3     0.900000E-01   1.00800           0
      4842 MEMB     40       SAPE     H18Y     HAL3     0.900000E-01   1.00800           0
      4843 MEMB     40       SAPE     H18Z     HAL3     0.900000E-01   1.00800           0
      4844 MEMB     41       OSM      N        NTL     -0.600000       14.0070           0
      4845 MEMB     41       OSM      C15      CTL5    -0.350000       12.0110           0
      4846 MEMB     41       OSM      H15A     HL       0.250000       1.00800           0
      4847 MEMB     41       OSM      H15B     HL       0.250000       1.00800           0
      4848 MEMB     41       OSM      H15C     HL       0.250000       1.00800           0
      4849 MEMB     41       OSM      C14      CTL5    -0.350000       12.0110           0
      4850 MEMB     41       OSM      H14A     HL       0.250000       1.00800           0
      4851 MEMB     41       OSM      H14B     HL       0.250000       1.00800           0
      4852 MEMB     41       OSM      H14C     HL       0.250000       1.00800           0
      4853 MEMB     41       OSM      C13      CTL5    -0.350000       12.0110           0
      4854 MEMB     41       OSM      H13A     HL       0.250000       1.00800           0
      4855 MEMB     41       OSM      H13B     HL       0.250000       1.00800           0
      4856 MEMB     41       OSM      H13C     HL       0.250000       1.00800           0
      4857 MEMB     41       OSM      C12      CTL2    -0.100000       12.0110           0
      4858 MEMB     41       OSM      H12A     HL       0.250000       1.00800           0
      4859 MEMB     41       OSM      H12B     HL       0.250000       1.00800           0
      4860 MEMB     41       OSM      C11      CTL2    -0.800000E-01   12.0110           0
      4861 MEMB     41       OSM      H11A     HAL2     0.900000E-01   1.00800           0
      4862 MEMB     41       OSM      H11B     HAL2     0.900000E-01   1.00800           0
      4863 MEMB     41       OSM      P        PL        1.50000       30.9740           0
      4864 MEMB     41       OSM      O13      O2L     -0.780000       15.9994           0
      4865 MEMB     41       OSM      O14      O2L     -0.780000       15.9994           0
      4866 MEMB     41       OSM      O11      OSLP    -0.570000       15.9994           0
      4867 MEMB     41       OSM      O12      OSLP    -0.570000       15.9994           0
      4868 MEMB     41       OSM      C1S      CTL2    -0.800000E-01   12.0110           0
      4869 MEMB     41       OSM      H1S      HAL2     0.900000E-01   1.00800           0
      4870 MEMB     41       OSM      H1T      HAL2     0.900000E-01   1.00800           0
      4871 MEMB     41       OSM      NF       NHL     -0.700000       14.0070           0
      4872 MEMB     41       OSM      HNF      H        0.350000       1.00800           0
      4873 MEMB     41       OSM      C2S      CTL1     0.300000       12.0110           0
      4874 MEMB     41       OSM      H2S      HAL1     0.500000E-01   1.00800           0
      4875 MEMB     41       OSM      C3S      CTO1     0.500000       12.0110           0
      4876 MEMB     41       OSM      H3S      HAL1    -0.110000       1.00800           0
      4877 MEMB     41       OSM      O3       OHL     -0.690000       15.9994           0
      4878 MEMB     41       OSM      HO3      HOL      0.300000       1.00800           0
      4879 MEMB     41       OSM      C4S      CEL3    -0.150000       12.0110           0
      4880 MEMB     41       OSM      H4S      HEL1     0.150000       1.00800           0
      4881 MEMB     41       OSM      C5S      CEL3    -0.150000       12.0110           0
      4882 MEMB     41       OSM      H5S      HEL1     0.150000       1.00800           0
      4883 MEMB     41       OSM      C6S      CTL2    -0.180000       12.0110           0
      4884 MEMB     41       OSM      H6S      HAL2     0.900000E-01   1.00800           0
      4885 MEMB     41       OSM      H6T      HAL2     0.900000E-01   1.00800           0
      4886 MEMB     41       OSM      C7S      CTL2    -0.180000       12.0110           0
      4887 MEMB     41       OSM      H7S      HAL2     0.900000E-01   1.00800           0
      4888 MEMB     41       OSM      H7T      HAL2     0.900000E-01   1.00800           0
      4889 MEMB     41       OSM      C8S      CTL2    -0.180000       12.0110           0
      4890 MEMB     41       OSM      H8S      HAL2     0.900000E-01   1.00800           0
      4891 MEMB     41       OSM      H8T      HAL2     0.900000E-01   1.00800           0
      4892 MEMB     41       OSM      C9S      CTL2    -0.180000       12.0110           0
      4893 MEMB     41       OSM      H9S      HAL2     0.900000E-01   1.00800           0
      4894 MEMB     41       OSM      H9T      HAL2     0.900000E-01   1.00800           0
      4895 MEMB     41       OSM      C10S     CTL2    -0.180000       12.0110           0
      4896 MEMB     41       OSM      H10S     HAL2     0.900000E-01   1.00800           0
      4897 MEMB     41       OSM      H10T     HAL2     0.900000E-01   1.00800           0
      4898 MEMB     41       OSM      C11S     CTL2    -0.180000       12.0110           0
      4899 MEMB     41       OSM      H11S     HAL2     0.900000E-01   1.00800           0
      4900 MEMB     41       OSM      H11T     HAL2     0.900000E-01   1.00800           0
      4901 MEMB     41       OSM      C12S     CTL2    -0.180000       12.0110           0
      4902 MEMB     41       OSM      H12S     HAL2     0.900000E-01   1.00800           0
      4903 MEMB     41       OSM      H12T     HAL2     0.900000E-01   1.00800           0
      4904 MEMB     41       OSM      C13S     CTL2    -0.180000       12.0110           0
      4905 MEMB     41       OSM      H13S     HAL2     0.900000E-01   1.00800           0
      4906 MEMB     41       OSM      H13T     HAL2     0.900000E-01   1.00800           0
      4907 MEMB     41       OSM      C14S     CTL2    -0.180000       12.0110           0
      4908 MEMB     41       OSM      H14S     HAL2     0.900000E-01   1.00800           0
      4909 MEMB     41       OSM      H14T     HAL2     0.900000E-01   1.00800           0
      4910 MEMB     41       OSM      C15S     CTL2    -0.180000       12.0110           0
      4911 MEMB     41       OSM      H15S     HAL2     0.900000E-01   1.00800           0
      4912 MEMB     41       OSM      H15T     HAL2     0.900000E-01   1.00800           0
      4913 MEMB     41       OSM      C16S     CTL2    -0.180000       12.0110           0
      4914 MEMB     41       OSM      H16S     HAL2     0.900000E-01   1.00800           0
      4915 MEMB     41       OSM      H16T     HAL2     0.900000E-01   1.00800           0
      4916 MEMB     41       OSM      C17S     CTL2    -0.180000       12.0110           0
      4917 MEMB     41       OSM      H17S     HAL2     0.900000E-01   1.00800           0
      4918 MEMB     41       OSM      H17T     HAL2     0.900000E-01   1.00800           0
      4919 MEMB     41       OSM      C18S     CTL3    -0.270000       12.0110           0
      4920 MEMB     41       OSM      H18S     HAL3     0.900000E-01   1.00800           0
      4921 MEMB     41       OSM      H18T     HAL3     0.900000E-01   1.00800           0
      4922 MEMB     41       OSM      H18U     HAL3     0.900000E-01   1.00800           0
      4923 MEMB     41       OSM      C1F      C        0.550000       12.0110           0
      4924 MEMB     41       OSM      OF       O       -0.600000       15.9994           0
      4925 MEMB     41       OSM      C2F      CTL2    -0.700000E-01   12.0110           0
      4926 MEMB     41       OSM      H2F      HAL2     0.600000E-01   1.00800           0
      4927 MEMB     41       OSM      H2G      HAL2     0.600000E-01   1.00800           0
      4928 MEMB     41       OSM      C3F      CTL2    -0.180000       12.0110           0
      4929 MEMB     41       OSM      H3F      HAL2     0.900000E-01   1.00800           0
      4930 MEMB     41       OSM      H3G      HAL2     0.900000E-01   1.00800           0
      4931 MEMB     41       OSM      C4F      CTL2    -0.180000       12.0110           0
      4932 MEMB     41       OSM      H4F      HAL2     0.900000E-01   1.00800           0
      4933 MEMB     41       OSM      H4G      HAL2     0.900000E-01   1.00800           0
      4934 MEMB     41       OSM      C5F      CTL2    -0.180000       12.0110           0
      4935 MEMB     41       OSM      H5F      HAL2     0.900000E-01   1.00800           0
      4936 MEMB     41       OSM      H5G      HAL2     0.900000E-01   1.00800           0
      4937 MEMB     41       OSM      C6F      CTL2    -0.180000       12.0110           0
      4938 MEMB     41       OSM      H6F      HAL2     0.900000E-01   1.00800           0
      4939 MEMB     41       OSM      H6G      HAL2     0.900000E-01   1.00800           0
      4940 MEMB     41       OSM      C7F      CTL2    -0.180000       12.0110           0
      4941 MEMB     41       OSM      H7F      HAL2     0.900000E-01   1.00800           0
      4942 MEMB     41       OSM      H7G      HAL2     0.900000E-01   1.00800           0
      4943 MEMB     41       OSM      C8F      CTL2    -0.180000       12.0110           0
      4944 MEMB     41       OSM      H8F      HAL2     0.900000E-01   1.00800           0
      4945 MEMB     41       OSM      H8G      HAL2     0.900000E-01   1.00800           0
      4946 MEMB     41       OSM      C9F      CEL1    -0.150000       12.0110           0
      4947 MEMB     41       OSM      H9F      HEL1     0.150000       1.00800           0
      4948 MEMB     41       OSM      C10F     CEL1    -0.150000       12.0110           0
      4949 MEMB     41       OSM      H10F     HEL1     0.150000       1.00800           0
      4950 MEMB     41       OSM      C11F     CTL2    -0.180000       12.0110           0
      4951 MEMB     41       OSM      H11F     HAL2     0.900000E-01   1.00800           0
      4952 MEMB     41       OSM      H11G     HAL2     0.900000E-01   1.00800           0
      4953 MEMB     41       OSM      C12F     CTL2    -0.180000       12.0110           0
      4954 MEMB     41       OSM      H12F     HAL2     0.900000E-01   1.00800           0
      4955 MEMB     41       OSM      H12G     HAL2     0.900000E-01   1.00800           0
      4956 MEMB     41       OSM      C13F     CTL2    -0.180000       12.0110           0
      4957 MEMB     41       OSM      H13F     HAL2     0.900000E-01   1.00800           0
      4958 MEMB     41       OSM      H13G     HAL2     0.900000E-01   1.00800           0
      4959 MEMB     41       OSM      C14F     CTL2    -0.180000       12.0110           0
      4960 MEMB     41       OSM      H14F     HAL2     0.900000E-01   1.00800           0
      4961 MEMB     41       OSM      H14G     HAL2     0.900000E-01   1.00800           0
      4962 MEMB     41       OSM      C15F     CTL2    -0.180000       12.0110           0
      4963 MEMB     41       OSM      H15F     HAL2     0.900000E-01   1.00800           0
      4964 MEMB     41       OSM      H15G     HAL2     0.900000E-01   1.00800           0
      4965 MEMB     41       OSM      C16F     CTL2    -0.180000       12.0110           0
      4966 MEMB     41       OSM      H16F     HAL2     0.900000E-01   1.00800           0
      4967 MEMB     41       OSM      H16G     HAL2     0.900000E-01   1.00800           0
      4968 MEMB     41       OSM      C17F     CTL2    -0.180000       12.0110           0
      4969 MEMB     41       OSM      H17F     HAL2     0.900000E-01   1.00800           0
      4970 MEMB     41       OSM      H17G     HAL2     0.900000E-01   1.00800           0
      4971 MEMB     41       OSM      C18F     CTL3    -0.270000       12.0110           0
      4972 MEMB     41       OSM      H18F     HAL3     0.900000E-01   1.00800           0
      4973 MEMB     41       OSM      H18G     HAL3     0.900000E-01   1.00800           0
      4974 MEMB     41       OSM      H18H     HAL3     0.900000E-01   1.00800           0
      4975 MEMB     42       SOPE     N        NH3L    -0.300000       14.0070           0
      4976 MEMB     42       SOPE     HN1      HCL      0.330000       1.00800           0
      4977 MEMB     42       SOPE     HN2      HCL      0.330000       1.00800           0
      4978 MEMB     42       SOPE     HN3      HCL      0.330000       1.00800           0
      4979 MEMB     42       SOPE     C12      CTL2     0.130000       12.0110           0
      4980 MEMB     42       SOPE     H12A     HAL2     0.900000E-01   1.00800           0
      4981 MEMB     42       SOPE     H12B     HAL2     0.900000E-01   1.00800           0
      4982 MEMB     42       SOPE     C11      CTL2    -0.800000E-01   12.0110           0
      4983 MEMB     42       SOPE     H11A     HAL2     0.900000E-01   1.00800           0
      4984 MEMB     42       SOPE     H11B     HAL2     0.900000E-01   1.00800           0
      4985 MEMB     42       SOPE     P        PL        1.50000       30.9740           0
      4986 MEMB     42       SOPE     O13      O2L     -0.780000       15.9994           0
      4987 MEMB     42       SOPE     O14      O2L     -0.780000       15.9994           0
      4988 MEMB     42       SOPE     O12      OSLP    -0.570000       15.9994           0
      4989 MEMB     42       SOPE     O11      OSLP    -0.570000       15.9994           0
      4990 MEMB     42       SOPE     C1       CTL2    -0.800000E-01   12.0110           0
      4991 MEMB     42       SOPE     HA       HAL2     0.900000E-01   1.00800           0
      4992 MEMB     42       SOPE     HB       HAL2     0.900000E-01   1.00800           0
      4993 MEMB     42       SOPE     C2       CTL1     0.170000       12.0110           0
      4994 MEMB     42       SOPE     HS       HAL1     0.900000E-01   1.00800           0
      4995 MEMB     42       SOPE     O21      OSL     -0.490000       15.9994           0
      4996 MEMB     42       SOPE     C21      CL       0.900000       12.0110           0
      4997 MEMB     42       SOPE     O22      OBL     -0.630000       15.9994           0
      4998 MEMB     42       SOPE     C22      CTL2    -0.220000       12.0110           0
      4999 MEMB     42       SOPE     H2R      HAL2     0.900000E-01   1.00800           0
      5000 MEMB     42       SOPE     H2S      HAL2     0.900000E-01   1.00800           0
      5001 MEMB     42       SOPE     C3       CTL2     0.800000E-01   12.0110           0
      5002 MEMB     42       SOPE     HX       HAL2     0.900000E-01   1.00800           0
      5003 MEMB     42       SOPE     HY       HAL2     0.900000E-01   1.00800           0
      5004 MEMB     42       SOPE     O31      OSL     -0.490000       15.9994           0
      5005 MEMB     42       SOPE     C31      CL       0.900000       12.0110           0
      5006 MEMB     42       SOPE     O32      OBL     -0.630000       15.9994           0
      5007 MEMB     42       SOPE     C32      CTL2    -0.220000       12.0110           0
      5008 MEMB     42       SOPE     H2X      HAL2     0.900000E-01   1.00800           0
      5009 MEMB     42       SOPE     H2Y      HAL2     0.900000E-01   1.00800           0
      5010 MEMB     42       SOPE     C23      CTL2    -0.180000       12.0110           0
      5011 MEMB     42       SOPE     H3R      HAL2     0.900000E-01   1.00800           0
      5012 MEMB     42       SOPE     H3S      HAL2     0.900000E-01   1.00800           0
      5013 MEMB     42       SOPE     C24      CTL2    -0.180000       12.0110           0
      5014 MEMB     42       SOPE     H4R      HAL2     0.900000E-01   1.00800           0
      5015 MEMB     42       SOPE     H4S      HAL2     0.900000E-01   1.00800           0
      5016 MEMB     42       SOPE     C25      CTL2    -0.180000       12.0110           0
      5017 MEMB     42       SOPE     H5R      HAL2     0.900000E-01   1.00800           0
      5018 MEMB     42       SOPE     H5S      HAL2     0.900000E-01   1.00800           0
      5019 MEMB     42       SOPE     C26      CTL2    -0.180000       12.0110           0
      5020 MEMB     42       SOPE     H6R      HAL2     0.900000E-01   1.00800           0
      5021 MEMB     42       SOPE     H6S      HAL2     0.900000E-01   1.00800           0
      5022 MEMB     42       SOPE     C27      CTL2    -0.180000       12.0110           0
      5023 MEMB     42       SOPE     H7R      HAL2     0.900000E-01   1.00800           0
      5024 MEMB     42       SOPE     H7S      HAL2     0.900000E-01   1.00800           0
      5025 MEMB     42       SOPE     C28      CTL2    -0.180000       12.0110           0
      5026 MEMB     42       SOPE     H8R      HAL2     0.900000E-01   1.00800           0
      5027 MEMB     42       SOPE     H8S      HAL2     0.900000E-01   1.00800           0
      5028 MEMB     42       SOPE     C29      CEL1    -0.150000       12.0110           0
      5029 MEMB     42       SOPE     H91      HEL1     0.150000       1.00800           0
      5030 MEMB     42       SOPE     C210     CEL1    -0.150000       12.0110           0
      5031 MEMB     42       SOPE     H101     HEL1     0.150000       1.00800           0
      5032 MEMB     42       SOPE     C211     CTL2    -0.180000       12.0110           0
      5033 MEMB     42       SOPE     H11R     HAL2     0.900000E-01   1.00800           0
      5034 MEMB     42       SOPE     H11S     HAL2     0.900000E-01   1.00800           0
      5035 MEMB     42       SOPE     C212     CTL2    -0.180000       12.0110           0
      5036 MEMB     42       SOPE     H12R     HAL2     0.900000E-01   1.00800           0
      5037 MEMB     42       SOPE     H12S     HAL2     0.900000E-01   1.00800           0
      5038 MEMB     42       SOPE     C213     CTL2    -0.180000       12.0110           0
      5039 MEMB     42       SOPE     H13R     HAL2     0.900000E-01   1.00800           0
      5040 MEMB     42       SOPE     H13S     HAL2     0.900000E-01   1.00800           0
      5041 MEMB     42       SOPE     C214     CTL2    -0.180000       12.0110           0
      5042 MEMB     42       SOPE     H14R     HAL2     0.900000E-01   1.00800           0
      5043 MEMB     42       SOPE     H14S     HAL2     0.900000E-01   1.00800           0
      5044 MEMB     42       SOPE     C215     CTL2    -0.180000       12.0110           0
      5045 MEMB     42       SOPE     H15R     HAL2     0.900000E-01   1.00800           0
      5046 MEMB     42       SOPE     H15S     HAL2     0.900000E-01   1.00800           0
      5047 MEMB     42       SOPE     C216     CTL2    -0.180000       12.0110           0
      5048 MEMB     42       SOPE     H16R     HAL2     0.900000E-01   1.00800           0
      5049 MEMB     42       SOPE     H16S     HAL2     0.900000E-01   1.00800           0
      5050 MEMB     42       SOPE     C217     CTL2    -0.180000       12.0110           0
      5051 MEMB     42       SOPE     H17R     HAL2     0.900000E-01   1.00800           0
      5052 MEMB     42       SOPE     H17S     HAL2     0.900000E-01   1.00800           0
      5053 MEMB     42       SOPE     C218     CTL3    -0.270000       12.0110           0
      5054 MEMB     42       SOPE     H18R     HAL3     0.900000E-01   1.00800           0
      5055 MEMB     42       SOPE     H18S     HAL3     0.900000E-01   1.00800           0
      5056 MEMB     42       SOPE     H18T     HAL3     0.900000E-01   1.00800           0
      5057 MEMB     42       SOPE     C33      CTL2    -0.180000       12.0110           0
      5058 MEMB     42       SOPE     H3X      HAL2     0.900000E-01   1.00800           0
      5059 MEMB     42       SOPE     H3Y      HAL2     0.900000E-01   1.00800           0
      5060 MEMB     42       SOPE     C34      CTL2    -0.180000       12.0110           0
      5061 MEMB     42       SOPE     H4X      HAL2     0.900000E-01   1.00800           0
      5062 MEMB     42       SOPE     H4Y      HAL2     0.900000E-01   1.00800           0
      5063 MEMB     42       SOPE     C35      CTL2    -0.180000       12.0110           0
      5064 MEMB     42       SOPE     H5X      HAL2     0.900000E-01   1.00800           0
      5065 MEMB     42       SOPE     H5Y      HAL2     0.900000E-01   1.00800           0
      5066 MEMB     42       SOPE     C36      CTL2    -0.180000       12.0110           0
      5067 MEMB     42       SOPE     H6X      HAL2     0.900000E-01   1.00800           0
      5068 MEMB     42       SOPE     H6Y      HAL2     0.900000E-01   1.00800           0
      5069 MEMB     42       SOPE     C37      CTL2    -0.180000       12.0110           0
      5070 MEMB     42       SOPE     H7X      HAL2     0.900000E-01   1.00800           0
      5071 MEMB     42       SOPE     H7Y      HAL2     0.900000E-01   1.00800           0
      5072 MEMB     42       SOPE     C38      CTL2    -0.180000       12.0110           0
      5073 MEMB     42       SOPE     H8X      HAL2     0.900000E-01   1.00800           0
      5074 MEMB     42       SOPE     H8Y      HAL2     0.900000E-01   1.00800           0
      5075 MEMB     42       SOPE     C39      CTL2    -0.180000       12.0110           0
      5076 MEMB     42       SOPE     H9X      HAL2     0.900000E-01   1.00800           0
      5077 MEMB     42       SOPE     H9Y      HAL2     0.900000E-01   1.00800           0
      5078 MEMB     42       SOPE     C310     CTL2    -0.180000       12.0110           0
      5079 MEMB     42       SOPE     H10X     HAL2     0.900000E-01   1.00800           0
      5080 MEMB     42       SOPE     H10Y     HAL2     0.900000E-01   1.00800           0
      5081 MEMB     42       SOPE     C311     CTL2    -0.180000       12.0110           0
      5082 MEMB     42       SOPE     H11X     HAL2     0.900000E-01   1.00800           0
      5083 MEMB     42       SOPE     H11Y     HAL2     0.900000E-01   1.00800           0
      5084 MEMB     42       SOPE     C312     CTL2    -0.180000       12.0110           0
      5085 MEMB     42       SOPE     H12X     HAL2     0.900000E-01   1.00800           0
      5086 MEMB     42       SOPE     H12Y     HAL2     0.900000E-01   1.00800           0
      5087 MEMB     42       SOPE     C313     CTL2    -0.180000       12.0110           0
      5088 MEMB     42       SOPE     H13X     HAL2     0.900000E-01   1.00800           0
      5089 MEMB     42       SOPE     H13Y     HAL2     0.900000E-01   1.00800           0
      5090 MEMB     42       SOPE     C314     CTL2    -0.180000       12.0110           0
      5091 MEMB     42       SOPE     H14X     HAL2     0.900000E-01   1.00800           0
      5092 MEMB     42       SOPE     H14Y     HAL2     0.900000E-01   1.00800           0
      5093 MEMB     42       SOPE     C315     CTL2    -0.180000       12.0110           0
      5094 MEMB     42       SOPE     H15X     HAL2     0.900000E-01   1.00800           0
      5095 MEMB     42       SOPE     H15Y     HAL2     0.900000E-01   1.00800           0
      5096 MEMB     42       SOPE     C316     CTL2    -0.180000       12.0110           0
      5097 MEMB     42       SOPE     H16X     HAL2     0.900000E-01   1.00800           0
      5098 MEMB     42       SOPE     H16Y     HAL2     0.900000E-01   1.00800           0
      5099 MEMB     42       SOPE     C317     CTL2    -0.180000       12.0110           0
      5100 MEMB     42       SOPE     H17X     HAL2     0.900000E-01   1.00800           0
      5101 MEMB     42       SOPE     H17Y     HAL2     0.900000E-01   1.00800           0
      5102 MEMB     42       SOPE     C318     CTL3    -0.270000       12.0110           0
      5103 MEMB     42       SOPE     H18X     HAL3     0.900000E-01   1.00800           0
      5104 MEMB     42       SOPE     H18Y     HAL3     0.900000E-01   1.00800           0
      5105 MEMB     42       SOPE     H18Z     HAL3     0.900000E-01   1.00800           0
      5106 MEMB     43       CHL1     C3       CRL1     0.140000       12.0110           0
      5107 MEMB     43       CHL1     H3       HGA1     0.900000E-01   1.00800           0
      5108 MEMB     43       CHL1     O3       OHL     -0.660000       15.9994           0
      5109 MEMB     43       CHL1     H3'      HOL      0.430000       1.00800           0
      5110 MEMB     43       CHL1     C4       CRL2    -0.180000       12.0110           0
      5111 MEMB     43       CHL1     H4A      HGA2     0.900000E-01   1.00800           0
      5112 MEMB     43       CHL1     H4B      HGA2     0.900000E-01   1.00800           0
      5113 MEMB     43       CHL1     C5       CEL1      0.00000       12.0110           0
      5114 MEMB     43       CHL1     C6       CEL1    -0.150000       12.0110           0
      5115 MEMB     43       CHL1     H6       HEL1     0.150000       1.00800           0
      5116 MEMB     43       CHL1     C7       CRL2    -0.180000       12.0110           0
      5117 MEMB     43       CHL1     H7A      HGA2     0.900000E-01   1.00800           0
      5118 MEMB     43       CHL1     H7B      HGA2     0.900000E-01   1.00800           0
      5119 MEMB     43       CHL1     C8       CRL1    -0.900000E-01   12.0110           0
      5120 MEMB     43       CHL1     H8       HGA1     0.900000E-01   1.00800           0
      5121 MEMB     43       CHL1     C14      CRL1    -0.900000E-01   12.0110           0
      5122 MEMB     43       CHL1     H14      HGA1     0.900000E-01   1.00800           0
      5123 MEMB     43       CHL1     C15      CRL2    -0.180000       12.0110           0
      5124 MEMB     43       CHL1     H15A     HGA2     0.900000E-01   1.00800           0
      5125 MEMB     43       CHL1     H15B     HGA2     0.900000E-01   1.00800           0
      5126 MEMB     43       CHL1     C16      CRL2    -0.180000       12.0110           0
      5127 MEMB     43       CHL1     H16A     HGA2     0.900000E-01   1.00800           0
      5128 MEMB     43       CHL1     H16B     HGA2     0.900000E-01   1.00800           0
      5129 MEMB     43       CHL1     C17      CRL1    -0.900000E-01   12.0110           0
      5130 MEMB     43       CHL1     H17      HGA1     0.900000E-01   1.00800           0
      5131 MEMB     43       CHL1     C13      CRL1      0.00000       12.0110           0
      5132 MEMB     43       CHL1     C18      CTL3    -0.270000       12.0110           0
      5133 MEMB     43       CHL1     H18A     HAL3     0.900000E-01   1.00800           0
      5134 MEMB     43       CHL1     H18B     HAL3     0.900000E-01   1.00800           0
      5135 MEMB     43       CHL1     H18C     HAL3     0.900000E-01   1.00800           0
      5136 MEMB     43       CHL1     C12      CRL2    -0.180000       12.0110           0
      5137 MEMB     43       CHL1     H12A     HGA2     0.900000E-01   1.00800           0
      5138 MEMB     43       CHL1     H12B     HGA2     0.900000E-01   1.00800           0
      5139 MEMB     43       CHL1     C11      CRL2    -0.180000       12.0110           0
      5140 MEMB     43       CHL1     H11A     HGA2     0.900000E-01   1.00800           0
      5141 MEMB     43       CHL1     H11B     HGA2     0.900000E-01   1.00800           0
      5142 MEMB     43       CHL1     C9       CRL1    -0.900000E-01   12.0110           0
      5143 MEMB     43       CHL1     H9       HGA1     0.900000E-01   1.00800           0
      5144 MEMB     43       CHL1     C10      CRL1      0.00000       12.0110           0
      5145 MEMB     43       CHL1     C19      CTL3    -0.270000       12.0110           0
      5146 MEMB     43       CHL1     H19A     HAL3     0.900000E-01   1.00800           0
      5147 MEMB     43       CHL1     H19B     HAL3     0.900000E-01   1.00800           0
      5148 MEMB     43       CHL1     H19C     HAL3     0.900000E-01   1.00800           0
      5149 MEMB     43       CHL1     C1       CRL2    -0.180000       12.0110           0
      5150 MEMB     43       CHL1     H1A      HGA2     0.900000E-01   1.00800           0
      5151 MEMB     43       CHL1     H1B      HGA2     0.900000E-01   1.00800           0
      5152 MEMB     43       CHL1     C2       CRL2    -0.180000       12.0110           0
      5153 MEMB     43       CHL1     H2A      HGA2     0.900000E-01   1.00800           0
      5154 MEMB     43       CHL1     H2B      HGA2     0.900000E-01   1.00800           0
      5155 MEMB     43       CHL1     C20      CTL1    -0.900000E-01   12.0110           0
      5156 MEMB     43       CHL1     H20      HAL1     0.900000E-01   1.00800           0
      5157 MEMB     43       CHL1     C21      CTL3    -0.270000       12.0110           0
      5158 MEMB     43       CHL1     H21A     HAL3     0.900000E-01   1.00800           0
      5159 MEMB     43       CHL1     H21B     HAL3     0.900000E-01   1.00800           0
      5160 MEMB     43       CHL1     H21C     HAL3     0.900000E-01   1.00800           0
      5161 MEMB     43       CHL1     C22      CTL2    -0.180000       12.0110           0
      5162 MEMB     43       CHL1     H22A     HAL2     0.900000E-01   1.00800           0
      5163 MEMB     43       CHL1     H22B     HAL2     0.900000E-01   1.00800           0
      5164 MEMB     43       CHL1     C23      CTL2    -0.180000       12.0110           0
      5165 MEMB     43       CHL1     H23A     HAL2     0.900000E-01   1.00800           0
      5166 MEMB     43       CHL1     H23B     HAL2     0.900000E-01   1.00800           0
      5167 MEMB     43       CHL1     C24      CTL2    -0.180000       12.0110           0
      5168 MEMB     43       CHL1     H24A     HAL2     0.900000E-01   1.00800           0
      5169 MEMB     43       CHL1     H24B     HAL2     0.900000E-01   1.00800           0
      5170 MEMB     43       CHL1     C25      CTL1    -0.900000E-01   12.0110           0
      5171 MEMB     43       CHL1     H25      HAL1     0.900000E-01   1.00800           0
      5172 MEMB     43       CHL1     C26      CTL3    -0.270000       12.0110           0
      5173 MEMB     43       CHL1     H26A     HAL3     0.900000E-01   1.00800           0
      5174 MEMB     43       CHL1     H26B     HAL3     0.900000E-01   1.00800           0
      5175 MEMB     43       CHL1     H26C     HAL3     0.900000E-01   1.00800           0
      5176 MEMB     43       CHL1     C27      CTL3    -0.270000       12.0110           0
      5177 MEMB     43       CHL1     H27A     HAL3     0.900000E-01   1.00800           0
      5178 MEMB     43       CHL1     H27B     HAL3     0.900000E-01   1.00800           0
      5179 MEMB     43       CHL1     H27C     HAL3     0.900000E-01   1.00800           0
      5180 MEMB     44       CHL1     C3       CRL1     0.140000       12.0110           0
      5181 MEMB     44       CHL1     H3       HGA1     0.900000E-01   1.00800           0
      5182 MEMB     44       CHL1     O3       OHL     -0.660000       15.9994           0
      5183 MEMB     44       CHL1     H3'      HOL      0.430000       1.00800           0
      5184 MEMB     44       CHL1     C4       CRL2    -0.180000       12.0110           0
      5185 MEMB     44       CHL1     H4A      HGA2     0.900000E-01   1.00800           0
      5186 MEMB     44       CHL1     H4B      HGA2     0.900000E-01   1.00800           0
      5187 MEMB     44       CHL1     C5       CEL1      0.00000       12.0110           0
      5188 MEMB     44       CHL1     C6       CEL1    -0.150000       12.0110           0
      5189 MEMB     44       CHL1     H6       HEL1     0.150000       1.00800           0
      5190 MEMB     44       CHL1     C7       CRL2    -0.180000       12.0110           0
      5191 MEMB     44       CHL1     H7A      HGA2     0.900000E-01   1.00800           0
      5192 MEMB     44       CHL1     H7B      HGA2     0.900000E-01   1.00800           0
      5193 MEMB     44       CHL1     C8       CRL1    -0.900000E-01   12.0110           0
      5194 MEMB     44       CHL1     H8       HGA1     0.900000E-01   1.00800           0
      5195 MEMB     44       CHL1     C14      CRL1    -0.900000E-01   12.0110           0
      5196 MEMB     44       CHL1     H14      HGA1     0.900000E-01   1.00800           0
      5197 MEMB     44       CHL1     C15      CRL2    -0.180000       12.0110           0
      5198 MEMB     44       CHL1     H15A     HGA2     0.900000E-01   1.00800           0
      5199 MEMB     44       CHL1     H15B     HGA2     0.900000E-01   1.00800           0
      5200 MEMB     44       CHL1     C16      CRL2    -0.180000       12.0110           0
      5201 MEMB     44       CHL1     H16A     HGA2     0.900000E-01   1.00800           0
      5202 MEMB     44       CHL1     H16B     HGA2     0.900000E-01   1.00800           0
      5203 MEMB     44       CHL1     C17      CRL1    -0.900000E-01   12.0110           0
      5204 MEMB     44       CHL1     H17      HGA1     0.900000E-01   1.00800           0
      5205 MEMB     44       CHL1     C13      CRL1      0.00000       12.0110           0
      5206 MEMB     44       CHL1     C18      CTL3    -0.270000       12.0110           0
      5207 MEMB     44       CHL1     H18A     HAL3     0.900000E-01   1.00800           0
      5208 MEMB     44       CHL1     H18B     HAL3     0.900000E-01   1.00800           0
      5209 MEMB     44       CHL1     H18C     HAL3     0.900000E-01   1.00800           0
      5210 MEMB     44       CHL1     C12      CRL2    -0.180000       12.0110           0
      5211 MEMB     44       CHL1     H12A     HGA2     0.900000E-01   1.00800           0
      5212 MEMB     44       CHL1     H12B     HGA2     0.900000E-01   1.00800           0
      5213 MEMB     44       CHL1     C11      CRL2    -0.180000       12.0110           0
      5214 MEMB     44       CHL1     H11A     HGA2     0.900000E-01   1.00800           0
      5215 MEMB     44       CHL1     H11B     HGA2     0.900000E-01   1.00800           0
      5216 MEMB     44       CHL1     C9       CRL1    -0.900000E-01   12.0110           0
      5217 MEMB     44       CHL1     H9       HGA1     0.900000E-01   1.00800           0
      5218 MEMB     44       CHL1     C10      CRL1      0.00000       12.0110           0
      5219 MEMB     44       CHL1     C19      CTL3    -0.270000       12.0110           0
      5220 MEMB     44       CHL1     H19A     HAL3     0.900000E-01   1.00800           0
      5221 MEMB     44       CHL1     H19B     HAL3     0.900000E-01   1.00800           0
      5222 MEMB     44       CHL1     H19C     HAL3     0.900000E-01   1.00800           0
      5223 MEMB     44       CHL1     C1       CRL2    -0.180000       12.0110           0
      5224 MEMB     44       CHL1     H1A      HGA2     0.900000E-01   1.00800           0
      5225 MEMB     44       CHL1     H1B      HGA2     0.900000E-01   1.00800           0
      5226 MEMB     44       CHL1     C2       CRL2    -0.180000       12.0110           0
      5227 MEMB     44       CHL1     H2A      HGA2     0.900000E-01   1.00800           0
      5228 MEMB     44       CHL1     H2B      HGA2     0.900000E-01   1.00800           0
      5229 MEMB     44       CHL1     C20      CTL1    -0.900000E-01   12.0110           0
      5230 MEMB     44       CHL1     H20      HAL1     0.900000E-01   1.00800           0
      5231 MEMB     44       CHL1     C21      CTL3    -0.270000       12.0110           0
      5232 MEMB     44       CHL1     H21A     HAL3     0.900000E-01   1.00800           0
      5233 MEMB     44       CHL1     H21B     HAL3     0.900000E-01   1.00800           0
      5234 MEMB     44       CHL1     H21C     HAL3     0.900000E-01   1.00800           0
      5235 MEMB     44       CHL1     C22      CTL2    -0.180000       12.0110           0
      5236 MEMB     44       CHL1     H22A     HAL2     0.900000E-01   1.00800           0
      5237 MEMB     44       CHL1     H22B     HAL2     0.900000E-01   1.00800           0
      5238 MEMB     44       CHL1     C23      CTL2    -0.180000       12.0110           0
      5239 MEMB     44       CHL1     H23A     HAL2     0.900000E-01   1.00800           0
      5240 MEMB     44       CHL1     H23B     HAL2     0.900000E-01   1.00800           0
      5241 MEMB     44       CHL1     C24      CTL2    -0.180000       12.0110           0
      5242 MEMB     44       CHL1     H24A     HAL2     0.900000E-01   1.00800           0
      5243 MEMB     44       CHL1     H24B     HAL2     0.900000E-01   1.00800           0
      5244 MEMB     44       CHL1     C25      CTL1    -0.900000E-01   12.0110           0
      5245 MEMB     44       CHL1     H25      HAL1     0.900000E-01   1.00800           0
      5246 MEMB     44       CHL1     C26      CTL3    -0.270000       12.0110           0
      5247 MEMB     44       CHL1     H26A     HAL3     0.900000E-01   1.00800           0
      5248 MEMB     44       CHL1     H26B     HAL3     0.900000E-01   1.00800           0
      5249 MEMB     44       CHL1     H26C     HAL3     0.900000E-01   1.00800           0
      5250 MEMB     44       CHL1     C27      CTL3    -0.270000       12.0110           0
      5251 MEMB     44       CHL1     H27A     HAL3     0.900000E-01   1.00800           0
      5252 MEMB     44       CHL1     H27B     HAL3     0.900000E-01   1.00800           0
      5253 MEMB     44       CHL1     H27C     HAL3     0.900000E-01   1.00800           0
      5254 MEMB     45       SAPE     N        NH3L    -0.300000       14.0070           0
      5255 MEMB     45       SAPE     HN1      HCL      0.330000       1.00800           0
      5256 MEMB     45       SAPE     HN2      HCL      0.330000       1.00800           0
      5257 MEMB     45       SAPE     HN3      HCL      0.330000       1.00800           0
      5258 MEMB     45       SAPE     C12      CTL2     0.130000       12.0110           0
      5259 MEMB     45       SAPE     H12A     HAL2     0.900000E-01   1.00800           0
      5260 MEMB     45       SAPE     H12B     HAL2     0.900000E-01   1.00800           0
      5261 MEMB     45       SAPE     C11      CTL2    -0.800000E-01   12.0110           0
      5262 MEMB     45       SAPE     H11A     HAL2     0.900000E-01   1.00800           0
      5263 MEMB     45       SAPE     H11B     HAL2     0.900000E-01   1.00800           0
      5264 MEMB     45       SAPE     P        PL        1.50000       30.9740           0
      5265 MEMB     45       SAPE     O13      O2L     -0.780000       15.9994           0
      5266 MEMB     45       SAPE     O14      O2L     -0.780000       15.9994           0
      5267 MEMB     45       SAPE     O12      OSLP    -0.570000       15.9994           0
      5268 MEMB     45       SAPE     O11      OSLP    -0.570000       15.9994           0
      5269 MEMB     45       SAPE     C1       CTL2    -0.800000E-01   12.0110           0
      5270 MEMB     45       SAPE     HA       HAL2     0.900000E-01   1.00800           0
      5271 MEMB     45       SAPE     HB       HAL2     0.900000E-01   1.00800           0
      5272 MEMB     45       SAPE     C2       CTL1     0.170000       12.0110           0
      5273 MEMB     45       SAPE     HS       HAL1     0.900000E-01   1.00800           0
      5274 MEMB     45       SAPE     O21      OSL     -0.490000       15.9994           0
      5275 MEMB     45       SAPE     C21      CL       0.900000       12.0110           0
      5276 MEMB     45       SAPE     O22      OBL     -0.630000       15.9994           0
      5277 MEMB     45       SAPE     C22      CTL2    -0.220000       12.0110           0
      5278 MEMB     45       SAPE     H2R      HAL2     0.900000E-01   1.00800           0
      5279 MEMB     45       SAPE     H2S      HAL2     0.900000E-01   1.00800           0
      5280 MEMB     45       SAPE     C3       CTL2     0.800000E-01   12.0110           0
      5281 MEMB     45       SAPE     HX       HAL2     0.900000E-01   1.00800           0
      5282 MEMB     45       SAPE     HY       HAL2     0.900000E-01   1.00800           0
      5283 MEMB     45       SAPE     O31      OSL     -0.490000       15.9994           0
      5284 MEMB     45       SAPE     C31      CL       0.900000       12.0110           0
      5285 MEMB     45       SAPE     O32      OBL     -0.630000       15.9994           0
      5286 MEMB     45       SAPE     C32      CTL2    -0.220000       12.0110           0
      5287 MEMB     45       SAPE     H2X      HAL2     0.900000E-01   1.00800           0
      5288 MEMB     45       SAPE     H2Y      HAL2     0.900000E-01   1.00800           0
      5289 MEMB     45       SAPE     C23      CTL2    -0.180000       12.0110           0
      5290 MEMB     45       SAPE     H3R      HAL2     0.900000E-01   1.00800           0
      5291 MEMB     45       SAPE     H3S      HAL2     0.900000E-01   1.00800           0
      5292 MEMB     45       SAPE     C24      CTL2    -0.180000       12.0110           0
      5293 MEMB     45       SAPE     H4R      HAL2     0.900000E-01   1.00800           0
      5294 MEMB     45       SAPE     H4S      HAL2     0.900000E-01   1.00800           0
      5295 MEMB     45       SAPE     C25      CEL1    -0.150000       12.0110           0
      5296 MEMB     45       SAPE     H5R      HEL1     0.150000       1.00800           0
      5297 MEMB     45       SAPE     C26      CEL1    -0.150000       12.0110           0
      5298 MEMB     45       SAPE     H6R      HEL1     0.150000       1.00800           0
      5299 MEMB     45       SAPE     C27      CTL2    -0.180000       12.0110           0
      5300 MEMB     45       SAPE     H7R      HAL2     0.900000E-01   1.00800           0
      5301 MEMB     45       SAPE     H7S      HAL2     0.900000E-01   1.00800           0
      5302 MEMB     45       SAPE     C28      CEL1    -0.150000       12.0110           0
      5303 MEMB     45       SAPE     H8R      HEL1     0.150000       1.00800           0
      5304 MEMB     45       SAPE     C29      CEL1    -0.150000       12.0110           0
      5305 MEMB     45       SAPE     H9R      HEL1     0.150000       1.00800           0
      5306 MEMB     45       SAPE     C210     CTL2    -0.180000       12.0110           0
      5307 MEMB     45       SAPE     H10R     HAL2     0.900000E-01   1.00800           0
      5308 MEMB     45       SAPE     H10S     HAL2     0.900000E-01   1.00800           0
      5309 MEMB     45       SAPE     C211     CEL1    -0.150000       12.0110           0
      5310 MEMB     45       SAPE     H11R     HEL1     0.150000       1.00800           0
      5311 MEMB     45       SAPE     C212     CEL1    -0.150000       12.0110           0
      5312 MEMB     45       SAPE     H12R     HEL1     0.150000       1.00800           0
      5313 MEMB     45       SAPE     C213     CTL2    -0.180000       12.0110           0
      5314 MEMB     45       SAPE     H13R     HAL2     0.900000E-01   1.00800           0
      5315 MEMB     45       SAPE     H13S     HAL2     0.900000E-01   1.00800           0
      5316 MEMB     45       SAPE     C214     CEL1    -0.150000       12.0110           0
      5317 MEMB     45       SAPE     H14R     HEL1     0.150000       1.00800           0
      5318 MEMB     45       SAPE     C215     CEL1    -0.150000       12.0110           0
      5319 MEMB     45       SAPE     H15R     HEL1     0.150000       1.00800           0
      5320 MEMB     45       SAPE     C216     CTL2    -0.180000       12.0110           0
      5321 MEMB     45       SAPE     H16R     HAL2     0.900000E-01   1.00800           0
      5322 MEMB     45       SAPE     H16S     HAL2     0.900000E-01   1.00800           0
      5323 MEMB     45       SAPE     C217     CTL2    -0.180000       12.0110           0
      5324 MEMB     45       SAPE     H17R     HAL2     0.900000E-01   1.00800           0
      5325 MEMB     45       SAPE     H17S     HAL2     0.900000E-01   1.00800           0
      5326 MEMB     45       SAPE     C218     CTL2    -0.180000       12.0110           0
      5327 MEMB     45       SAPE     H18R     HAL2     0.900000E-01   1.00800           0
      5328 MEMB     45       SAPE     H18S     HAL2     0.900000E-01   1.00800           0
      5329 MEMB     45       SAPE     C219     CTL2    -0.180000       12.0110           0
      5330 MEMB     45       SAPE     H19R     HAL2     0.900000E-01   1.00800           0
      5331 MEMB     45       SAPE     H19S     HAL2     0.900000E-01   1.00800           0
      5332 MEMB     45       SAPE     C220     CTL3    -0.270000       12.0110           0
      5333 MEMB     45       SAPE     H20R     HAL3     0.900000E-01   1.00800           0
      5334 MEMB     45       SAPE     H20S     HAL3     0.900000E-01   1.00800           0
      5335 MEMB     45       SAPE     H20T     HAL3     0.900000E-01   1.00800           0
      5336 MEMB     45       SAPE     C33      CTL2    -0.180000       12.0110           0
      5337 MEMB     45       SAPE     H3X      HAL2     0.900000E-01   1.00800           0
      5338 MEMB     45       SAPE     H3Y      HAL2     0.900000E-01   1.00800           0
      5339 MEMB     45       SAPE     C34      CTL2    -0.180000       12.0110           0
      5340 MEMB     45       SAPE     H4X      HAL2     0.900000E-01   1.00800           0
      5341 MEMB     45       SAPE     H4Y      HAL2     0.900000E-01   1.00800           0
      5342 MEMB     45       SAPE     C35      CTL2    -0.180000       12.0110           0
      5343 MEMB     45       SAPE     H5X      HAL2     0.900000E-01   1.00800           0
      5344 MEMB     45       SAPE     H5Y      HAL2     0.900000E-01   1.00800           0
      5345 MEMB     45       SAPE     C36      CTL2    -0.180000       12.0110           0
      5346 MEMB     45       SAPE     H6X      HAL2     0.900000E-01   1.00800           0
      5347 MEMB     45       SAPE     H6Y      HAL2     0.900000E-01   1.00800           0
      5348 MEMB     45       SAPE     C37      CTL2    -0.180000       12.0110           0
      5349 MEMB     45       SAPE     H7X      HAL2     0.900000E-01   1.00800           0
      5350 MEMB     45       SAPE     H7Y      HAL2     0.900000E-01   1.00800           0
      5351 MEMB     45       SAPE     C38      CTL2    -0.180000       12.0110           0
      5352 MEMB     45       SAPE     H8X      HAL2     0.900000E-01   1.00800           0
      5353 MEMB     45       SAPE     H8Y      HAL2     0.900000E-01   1.00800           0
      5354 MEMB     45       SAPE     C39      CTL2    -0.180000       12.0110           0
      5355 MEMB     45       SAPE     H9X      HAL2     0.900000E-01   1.00800           0
      5356 MEMB     45       SAPE     H9Y      HAL2     0.900000E-01   1.00800           0
      5357 MEMB     45       SAPE     C310     CTL2    -0.180000       12.0110           0
      5358 MEMB     45       SAPE     H10X     HAL2     0.900000E-01   1.00800           0
      5359 MEMB     45       SAPE     H10Y     HAL2     0.900000E-01   1.00800           0
      5360 MEMB     45       SAPE     C311     CTL2    -0.180000       12.0110           0
      5361 MEMB     45       SAPE     H11X     HAL2     0.900000E-01   1.00800           0
      5362 MEMB     45       SAPE     H11Y     HAL2     0.900000E-01   1.00800           0
      5363 MEMB     45       SAPE     C312     CTL2    -0.180000       12.0110           0
      5364 MEMB     45       SAPE     H12X     HAL2     0.900000E-01   1.00800           0
      5365 MEMB     45       SAPE     H12Y     HAL2     0.900000E-01   1.00800           0
      5366 MEMB     45       SAPE     C313     CTL2    -0.180000       12.0110           0
      5367 MEMB     45       SAPE     H13X     HAL2     0.900000E-01   1.00800           0
      5368 MEMB     45       SAPE     H13Y     HAL2     0.900000E-01   1.00800           0
      5369 MEMB     45       SAPE     C314     CTL2    -0.180000       12.0110           0
      5370 MEMB     45       SAPE     H14X     HAL2     0.900000E-01   1.00800           0
      5371 MEMB     45       SAPE     H14Y     HAL2     0.900000E-01   1.00800           0
      5372 MEMB     45       SAPE     C315     CTL2    -0.180000       12.0110           0
      5373 MEMB     45       SAPE     H15X     HAL2     0.900000E-01   1.00800           0
      5374 MEMB     45       SAPE     H15Y     HAL2     0.900000E-01   1.00800           0
      5375 MEMB     45       SAPE     C316     CTL2    -0.180000       12.0110           0
      5376 MEMB     45       SAPE     H16X     HAL2     0.900000E-01   1.00800           0
      5377 MEMB     45       SAPE     H16Y     HAL2     0.900000E-01   1.00800           0
      5378 MEMB     45       SAPE     C317     CTL2    -0.180000       12.0110           0
      5379 MEMB     45       SAPE     H17X     HAL2     0.900000E-01   1.00800           0
      5380 MEMB     45       SAPE     H17Y     HAL2     0.900000E-01   1.00800           0
      5381 MEMB     45       SAPE     C318     CTL3    -0.270000       12.0110           0
      5382 MEMB     45       SAPE     H18X     HAL3     0.900000E-01   1.00800           0
      5383 MEMB     45       SAPE     H18Y     HAL3     0.900000E-01   1.00800           0
      5384 MEMB     45       SAPE     H18Z     HAL3     0.900000E-01   1.00800           0
      5385 MEMB     46       CHL1     C3       CRL1     0.140000       12.0110           0
      5386 MEMB     46       CHL1     H3       HGA1     0.900000E-01   1.00800           0
      5387 MEMB     46       CHL1     O3       OHL     -0.660000       15.9994           0
      5388 MEMB     46       CHL1     H3'      HOL      0.430000       1.00800           0
      5389 MEMB     46       CHL1     C4       CRL2    -0.180000       12.0110           0
      5390 MEMB     46       CHL1     H4A      HGA2     0.900000E-01   1.00800           0
      5391 MEMB     46       CHL1     H4B      HGA2     0.900000E-01   1.00800           0
      5392 MEMB     46       CHL1     C5       CEL1      0.00000       12.0110           0
      5393 MEMB     46       CHL1     C6       CEL1    -0.150000       12.0110           0
      5394 MEMB     46       CHL1     H6       HEL1     0.150000       1.00800           0
      5395 MEMB     46       CHL1     C7       CRL2    -0.180000       12.0110           0
      5396 MEMB     46       CHL1     H7A      HGA2     0.900000E-01   1.00800           0
      5397 MEMB     46       CHL1     H7B      HGA2     0.900000E-01   1.00800           0
      5398 MEMB     46       CHL1     C8       CRL1    -0.900000E-01   12.0110           0
      5399 MEMB     46       CHL1     H8       HGA1     0.900000E-01   1.00800           0
      5400 MEMB     46       CHL1     C14      CRL1    -0.900000E-01   12.0110           0
      5401 MEMB     46       CHL1     H14      HGA1     0.900000E-01   1.00800           0
      5402 MEMB     46       CHL1     C15      CRL2    -0.180000       12.0110           0
      5403 MEMB     46       CHL1     H15A     HGA2     0.900000E-01   1.00800           0
      5404 MEMB     46       CHL1     H15B     HGA2     0.900000E-01   1.00800           0
      5405 MEMB     46       CHL1     C16      CRL2    -0.180000       12.0110           0
      5406 MEMB     46       CHL1     H16A     HGA2     0.900000E-01   1.00800           0
      5407 MEMB     46       CHL1     H16B     HGA2     0.900000E-01   1.00800           0
      5408 MEMB     46       CHL1     C17      CRL1    -0.900000E-01   12.0110           0
      5409 MEMB     46       CHL1     H17      HGA1     0.900000E-01   1.00800           0
      5410 MEMB     46       CHL1     C13      CRL1      0.00000       12.0110           0
      5411 MEMB     46       CHL1     C18      CTL3    -0.270000       12.0110           0
      5412 MEMB     46       CHL1     H18A     HAL3     0.900000E-01   1.00800           0
      5413 MEMB     46       CHL1     H18B     HAL3     0.900000E-01   1.00800           0
      5414 MEMB     46       CHL1     H18C     HAL3     0.900000E-01   1.00800           0
      5415 MEMB     46       CHL1     C12      CRL2    -0.180000       12.0110           0
      5416 MEMB     46       CHL1     H12A     HGA2     0.900000E-01   1.00800           0
      5417 MEMB     46       CHL1     H12B     HGA2     0.900000E-01   1.00800           0
      5418 MEMB     46       CHL1     C11      CRL2    -0.180000       12.0110           0
      5419 MEMB     46       CHL1     H11A     HGA2     0.900000E-01   1.00800           0
      5420 MEMB     46       CHL1     H11B     HGA2     0.900000E-01   1.00800           0
      5421 MEMB     46       CHL1     C9       CRL1    -0.900000E-01   12.0110           0
      5422 MEMB     46       CHL1     H9       HGA1     0.900000E-01   1.00800           0
      5423 MEMB     46       CHL1     C10      CRL1      0.00000       12.0110           0
      5424 MEMB     46       CHL1     C19      CTL3    -0.270000       12.0110           0
      5425 MEMB     46       CHL1     H19A     HAL3     0.900000E-01   1.00800           0
      5426 MEMB     46       CHL1     H19B     HAL3     0.900000E-01   1.00800           0
      5427 MEMB     46       CHL1     H19C     HAL3     0.900000E-01   1.00800           0
      5428 MEMB     46       CHL1     C1       CRL2    -0.180000       12.0110           0
      5429 MEMB     46       CHL1     H1A      HGA2     0.900000E-01   1.00800           0
      5430 MEMB     46       CHL1     H1B      HGA2     0.900000E-01   1.00800           0
      5431 MEMB     46       CHL1     C2       CRL2    -0.180000       12.0110           0
      5432 MEMB     46       CHL1     H2A      HGA2     0.900000E-01   1.00800           0
      5433 MEMB     46       CHL1     H2B      HGA2     0.900000E-01   1.00800           0
      5434 MEMB     46       CHL1     C20      CTL1    -0.900000E-01   12.0110           0
      5435 MEMB     46       CHL1     H20      HAL1     0.900000E-01   1.00800           0
      5436 MEMB     46       CHL1     C21      CTL3    -0.270000       12.0110           0
      5437 MEMB     46       CHL1     H21A     HAL3     0.900000E-01   1.00800           0
      5438 MEMB     46       CHL1     H21B     HAL3     0.900000E-01   1.00800           0
      5439 MEMB     46       CHL1     H21C     HAL3     0.900000E-01   1.00800           0
      5440 MEMB     46       CHL1     C22      CTL2    -0.180000       12.0110           0
      5441 MEMB     46       CHL1     H22A     HAL2     0.900000E-01   1.00800           0
      5442 MEMB     46       CHL1     H22B     HAL2     0.900000E-01   1.00800           0
      5443 MEMB     46       CHL1     C23      CTL2    -0.180000       12.0110           0
      5444 MEMB     46       CHL1     H23A     HAL2     0.900000E-01   1.00800           0
      5445 MEMB     46       CHL1     H23B     HAL2     0.900000E-01   1.00800           0
      5446 MEMB     46       CHL1     C24      CTL2    -0.180000       12.0110           0
      5447 MEMB     46       CHL1     H24A     HAL2     0.900000E-01   1.00800           0
      5448 MEMB     46       CHL1     H24B     HAL2     0.900000E-01   1.00800           0
      5449 MEMB     46       CHL1     C25      CTL1    -0.900000E-01   12.0110           0
      5450 MEMB     46       CHL1     H25      HAL1     0.900000E-01   1.00800           0
      5451 MEMB     46       CHL1     C26      CTL3    -0.270000       12.0110           0
      5452 MEMB     46       CHL1     H26A     HAL3     0.900000E-01   1.00800           0
      5453 MEMB     46       CHL1     H26B     HAL3     0.900000E-01   1.00800           0
      5454 MEMB     46       CHL1     H26C     HAL3     0.900000E-01   1.00800           0
      5455 MEMB     46       CHL1     C27      CTL3    -0.270000       12.0110           0
      5456 MEMB     46       CHL1     H27A     HAL3     0.900000E-01   1.00800           0
      5457 MEMB     46       CHL1     H27B     HAL3     0.900000E-01   1.00800           0
      5458 MEMB     46       CHL1     H27C     HAL3     0.900000E-01   1.00800           0
      5459 MEMB     47       SAPS     N        NH3L    -0.300000       14.0070           0
      5460 MEMB     47       SAPS     HN1      HCL      0.330000       1.00800           0
      5461 MEMB     47       SAPS     HN2      HCL      0.330000       1.00800           0
      5462 MEMB     47       SAPS     HN3      HCL      0.330000       1.00800           0
      5463 MEMB     47       SAPS     C12      CTL1     0.210000       12.0110           0
      5464 MEMB     47       SAPS     H12A     HBL      0.100000       1.00800           0
      5465 MEMB     47       SAPS     C13      CCL      0.340000       12.0110           0
      5466 MEMB     47       SAPS     O13A     OCL     -0.670000       15.9994           0
      5467 MEMB     47       SAPS     O13B     OCL     -0.670000       15.9994           0
      5468 MEMB     47       SAPS     C11      CTL2    -0.800000E-01   12.0110           0
      5469 MEMB     47       SAPS     H11A     HAL2     0.900000E-01   1.00800           0
      5470 MEMB     47       SAPS     H11B     HAL2     0.900000E-01   1.00800           0
      5471 MEMB     47       SAPS     P        PL        1.50000       30.9740           0
      5472 MEMB     47       SAPS     O13      O2L     -0.780000       15.9994           0
      5473 MEMB     47       SAPS     O14      O2L     -0.780000       15.9994           0
      5474 MEMB     47       SAPS     O12      OSLP    -0.570000       15.9994           0
      5475 MEMB     47       SAPS     O11      OSLP    -0.570000       15.9994           0
      5476 MEMB     47       SAPS     C1       CTL2    -0.800000E-01   12.0110           0
      5477 MEMB     47       SAPS     HA       HAL2     0.900000E-01   1.00800           0
      5478 MEMB     47       SAPS     HB       HAL2     0.900000E-01   1.00800           0
      5479 MEMB     47       SAPS     C2       CTL1     0.170000       12.0110           0
      5480 MEMB     47       SAPS     HS       HAL1     0.900000E-01   1.00800           0
      5481 MEMB     47       SAPS     O21      OSL     -0.490000       15.9994           0
      5482 MEMB     47       SAPS     C21      CL       0.900000       12.0110           0
      5483 MEMB     47       SAPS     O22      OBL     -0.630000       15.9994           0
      5484 MEMB     47       SAPS     C22      CTL2    -0.220000       12.0110           0
      5485 MEMB     47       SAPS     H2R      HAL2     0.900000E-01   1.00800           0
      5486 MEMB     47       SAPS     H2S      HAL2     0.900000E-01   1.00800           0
      5487 MEMB     47       SAPS     C3       CTL2     0.800000E-01   12.0110           0
      5488 MEMB     47       SAPS     HX       HAL2     0.900000E-01   1.00800           0
      5489 MEMB     47       SAPS     HY       HAL2     0.900000E-01   1.00800           0
      5490 MEMB     47       SAPS     O31      OSL     -0.490000       15.9994           0
      5491 MEMB     47       SAPS     C31      CL       0.900000       12.0110           0
      5492 MEMB     47       SAPS     O32      OBL     -0.630000       15.9994           0
      5493 MEMB     47       SAPS     C32      CTL2    -0.220000       12.0110           0
      5494 MEMB     47       SAPS     H2X      HAL2     0.900000E-01   1.00800           0
      5495 MEMB     47       SAPS     H2Y      HAL2     0.900000E-01   1.00800           0
      5496 MEMB     47       SAPS     C23      CTL2    -0.180000       12.0110           0
      5497 MEMB     47       SAPS     H3R      HAL2     0.900000E-01   1.00800           0
      5498 MEMB     47       SAPS     H3S      HAL2     0.900000E-01   1.00800           0
      5499 MEMB     47       SAPS     C24      CTL2    -0.180000       12.0110           0
      5500 MEMB     47       SAPS     H4R      HAL2     0.900000E-01   1.00800           0
      5501 MEMB     47       SAPS     H4S      HAL2     0.900000E-01   1.00800           0
      5502 MEMB     47       SAPS     C25      CEL1    -0.150000       12.0110           0
      5503 MEMB     47       SAPS     H5R      HEL1     0.150000       1.00800           0
      5504 MEMB     47       SAPS     C26      CEL1    -0.150000       12.0110           0
      5505 MEMB     47       SAPS     H6R      HEL1     0.150000       1.00800           0
      5506 MEMB     47       SAPS     C27      CTL2    -0.180000       12.0110           0
      5507 MEMB     47       SAPS     H7R      HAL2     0.900000E-01   1.00800           0
      5508 MEMB     47       SAPS     H7S      HAL2     0.900000E-01   1.00800           0
      5509 MEMB     47       SAPS     C28      CEL1    -0.150000       12.0110           0
      5510 MEMB     47       SAPS     H8R      HEL1     0.150000       1.00800           0
      5511 MEMB     47       SAPS     C29      CEL1    -0.150000       12.0110           0
      5512 MEMB     47       SAPS     H9R      HEL1     0.150000       1.00800           0
      5513 MEMB     47       SAPS     C210     CTL2    -0.180000       12.0110           0
      5514 MEMB     47       SAPS     H10R     HAL2     0.900000E-01   1.00800           0
      5515 MEMB     47       SAPS     H10S     HAL2     0.900000E-01   1.00800           0
      5516 MEMB     47       SAPS     C211     CEL1    -0.150000       12.0110           0
      5517 MEMB     47       SAPS     H11R     HEL1     0.150000       1.00800           0
      5518 MEMB     47       SAPS     C212     CEL1    -0.150000       12.0110           0
      5519 MEMB     47       SAPS     H12R     HEL1     0.150000       1.00800           0
      5520 MEMB     47       SAPS     C213     CTL2    -0.180000       12.0110           0
      5521 MEMB     47       SAPS     H13R     HAL2     0.900000E-01   1.00800           0
      5522 MEMB     47       SAPS     H13S     HAL2     0.900000E-01   1.00800           0
      5523 MEMB     47       SAPS     C214     CEL1    -0.150000       12.0110           0
      5524 MEMB     47       SAPS     H14R     HEL1     0.150000       1.00800           0
      5525 MEMB     47       SAPS     C215     CEL1    -0.150000       12.0110           0
      5526 MEMB     47       SAPS     H15R     HEL1     0.150000       1.00800           0
      5527 MEMB     47       SAPS     C216     CTL2    -0.180000       12.0110           0
      5528 MEMB     47       SAPS     H16R     HAL2     0.900000E-01   1.00800           0
      5529 MEMB     47       SAPS     H16S     HAL2     0.900000E-01   1.00800           0
      5530 MEMB     47       SAPS     C217     CTL2    -0.180000       12.0110           0
      5531 MEMB     47       SAPS     H17R     HAL2     0.900000E-01   1.00800           0
      5532 MEMB     47       SAPS     H17S     HAL2     0.900000E-01   1.00800           0
      5533 MEMB     47       SAPS     C218     CTL2    -0.180000       12.0110           0
      5534 MEMB     47       SAPS     H18R     HAL2     0.900000E-01   1.00800           0
      5535 MEMB     47       SAPS     H18S     HAL2     0.900000E-01   1.00800           0
      5536 MEMB     47       SAPS     C219     CTL2    -0.180000       12.0110           0
      5537 MEMB     47       SAPS     H19R     HAL2     0.900000E-01   1.00800           0
      5538 MEMB     47       SAPS     H19S     HAL2     0.900000E-01   1.00800           0
      5539 MEMB     47       SAPS     C220     CTL3    -0.270000       12.0110           0
      5540 MEMB     47       SAPS     H20R     HAL3     0.900000E-01   1.00800           0
      5541 MEMB     47       SAPS     H20S     HAL3     0.900000E-01   1.00800           0
      5542 MEMB     47       SAPS     H20T     HAL3     0.900000E-01   1.00800           0
      5543 MEMB     47       SAPS     C33      CTL2    -0.180000       12.0110           0
      5544 MEMB     47       SAPS     H3X      HAL2     0.900000E-01   1.00800           0
      5545 MEMB     47       SAPS     H3Y      HAL2     0.900000E-01   1.00800           0
      5546 MEMB     47       SAPS     C34      CTL2    -0.180000       12.0110           0
      5547 MEMB     47       SAPS     H4X      HAL2     0.900000E-01   1.00800           0
      5548 MEMB     47       SAPS     H4Y      HAL2     0.900000E-01   1.00800           0
      5549 MEMB     47       SAPS     C35      CTL2    -0.180000       12.0110           0
      5550 MEMB     47       SAPS     H5X      HAL2     0.900000E-01   1.00800           0
      5551 MEMB     47       SAPS     H5Y      HAL2     0.900000E-01   1.00800           0
      5552 MEMB     47       SAPS     C36      CTL2    -0.180000       12.0110           0
      5553 MEMB     47       SAPS     H6X      HAL2     0.900000E-01   1.00800           0
      5554 MEMB     47       SAPS     H6Y      HAL2     0.900000E-01   1.00800           0
      5555 MEMB     47       SAPS     C37      CTL2    -0.180000       12.0110           0
      5556 MEMB     47       SAPS     H7X      HAL2     0.900000E-01   1.00800           0
      5557 MEMB     47       SAPS     H7Y      HAL2     0.900000E-01   1.00800           0
      5558 MEMB     47       SAPS     C38      CTL2    -0.180000       12.0110           0
      5559 MEMB     47       SAPS     H8X      HAL2     0.900000E-01   1.00800           0
      5560 MEMB     47       SAPS     H8Y      HAL2     0.900000E-01   1.00800           0
      5561 MEMB     47       SAPS     C39      CTL2    -0.180000       12.0110           0
      5562 MEMB     47       SAPS     H9X      HAL2     0.900000E-01   1.00800           0
      5563 MEMB     47       SAPS     H9Y      HAL2     0.900000E-01   1.00800           0
      5564 MEMB     47       SAPS     C310     CTL2    -0.180000       12.0110           0
      5565 MEMB     47       SAPS     H10X     HAL2     0.900000E-01   1.00800           0
      5566 MEMB     47       SAPS     H10Y     HAL2     0.900000E-01   1.00800           0
      5567 MEMB     47       SAPS     C311     CTL2    -0.180000       12.0110           0
      5568 MEMB     47       SAPS     H11X     HAL2     0.900000E-01   1.00800           0
      5569 MEMB     47       SAPS     H11Y     HAL2     0.900000E-01   1.00800           0
      5570 MEMB     47       SAPS     C312     CTL2    -0.180000       12.0110           0
      5571 MEMB     47       SAPS     H12X     HAL2     0.900000E-01   1.00800           0
      5572 MEMB     47       SAPS     H12Y     HAL2     0.900000E-01   1.00800           0
      5573 MEMB     47       SAPS     C313     CTL2    -0.180000       12.0110           0
      5574 MEMB     47       SAPS     H13X     HAL2     0.900000E-01   1.00800           0
      5575 MEMB     47       SAPS     H13Y     HAL2     0.900000E-01   1.00800           0
      5576 MEMB     47       SAPS     C314     CTL2    -0.180000       12.0110           0
      5577 MEMB     47       SAPS     H14X     HAL2     0.900000E-01   1.00800           0
      5578 MEMB     47       SAPS     H14Y     HAL2     0.900000E-01   1.00800           0
      5579 MEMB     47       SAPS     C315     CTL2    -0.180000       12.0110           0
      5580 MEMB     47       SAPS     H15X     HAL2     0.900000E-01   1.00800           0
      5581 MEMB     47       SAPS     H15Y     HAL2     0.900000E-01   1.00800           0
      5582 MEMB     47       SAPS     C316     CTL2    -0.180000       12.0110           0
      5583 MEMB     47       SAPS     H16X     HAL2     0.900000E-01   1.00800           0
      5584 MEMB     47       SAPS     H16Y     HAL2     0.900000E-01   1.00800           0
      5585 MEMB     47       SAPS     C317     CTL2    -0.180000       12.0110           0
      5586 MEMB     47       SAPS     H17X     HAL2     0.900000E-01   1.00800           0
      5587 MEMB     47       SAPS     H17Y     HAL2     0.900000E-01   1.00800           0
      5588 MEMB     47       SAPS     C318     CTL3    -0.270000       12.0110           0
      5589 MEMB     47       SAPS     H18X     HAL3     0.900000E-01   1.00800           0
      5590 MEMB     47       SAPS     H18Y     HAL3     0.900000E-01   1.00800           0
      5591 MEMB     47       SAPS     H18Z     HAL3     0.900000E-01   1.00800           0
      5592 MEMB     48       POPC     N        NTL     -0.600000       14.0070           0
      5593 MEMB     48       POPC     C12      CTL2    -0.100000       12.0110           0
      5594 MEMB     48       POPC     H12A     HL       0.250000       1.00800           0
      5595 MEMB     48       POPC     H12B     HL       0.250000       1.00800           0
      5596 MEMB     48       POPC     C13      CTL5    -0.350000       12.0110           0
      5597 MEMB     48       POPC     H13A     HL       0.250000       1.00800           0
      5598 MEMB     48       POPC     H13B     HL       0.250000       1.00800           0
      5599 MEMB     48       POPC     H13C     HL       0.250000       1.00800           0
      5600 MEMB     48       POPC     C14      CTL5    -0.350000       12.0110           0
      5601 MEMB     48       POPC     H14A     HL       0.250000       1.00800           0
      5602 MEMB     48       POPC     H14B     HL       0.250000       1.00800           0
      5603 MEMB     48       POPC     H14C     HL       0.250000       1.00800           0
      5604 MEMB     48       POPC     C15      CTL5    -0.350000       12.0110           0
      5605 MEMB     48       POPC     H15A     HL       0.250000       1.00800           0
      5606 MEMB     48       POPC     H15B     HL       0.250000       1.00800           0
      5607 MEMB     48       POPC     H15C     HL       0.250000       1.00800           0
      5608 MEMB     48       POPC     C11      CTL2    -0.800000E-01   12.0110           0
      5609 MEMB     48       POPC     H11A     HAL2     0.900000E-01   1.00800           0
      5610 MEMB     48       POPC     H11B     HAL2     0.900000E-01   1.00800           0
      5611 MEMB     48       POPC     P        PL        1.50000       30.9740           0
      5612 MEMB     48       POPC     O13      O2L     -0.780000       15.9994           0
      5613 MEMB     48       POPC     O14      O2L     -0.780000       15.9994           0
      5614 MEMB     48       POPC     O12      OSLP    -0.570000       15.9994           0
      5615 MEMB     48       POPC     O11      OSLP    -0.570000       15.9994           0
      5616 MEMB     48       POPC     C1       CTL2    -0.800000E-01   12.0110           0
      5617 MEMB     48       POPC     HA       HAL2     0.900000E-01   1.00800           0
      5618 MEMB     48       POPC     HB       HAL2     0.900000E-01   1.00800           0
      5619 MEMB     48       POPC     C2       CTL1     0.170000       12.0110           0
      5620 MEMB     48       POPC     HS       HAL1     0.900000E-01   1.00800           0
      5621 MEMB     48       POPC     O21      OSL     -0.490000       15.9994           0
      5622 MEMB     48       POPC     C21      CL       0.900000       12.0110           0
      5623 MEMB     48       POPC     O22      OBL     -0.630000       15.9994           0
      5624 MEMB     48       POPC     C22      CTL2    -0.220000       12.0110           0
      5625 MEMB     48       POPC     H2R      HAL2     0.900000E-01   1.00800           0
      5626 MEMB     48       POPC     H2S      HAL2     0.900000E-01   1.00800           0
      5627 MEMB     48       POPC     C3       CTL2     0.800000E-01   12.0110           0
      5628 MEMB     48       POPC     HX       HAL2     0.900000E-01   1.00800           0
      5629 MEMB     48       POPC     HY       HAL2     0.900000E-01   1.00800           0
      5630 MEMB     48       POPC     O31      OSL     -0.490000       15.9994           0
      5631 MEMB     48       POPC     C31      CL       0.900000       12.0110           0
      5632 MEMB     48       POPC     O32      OBL     -0.630000       15.9994           0
      5633 MEMB     48       POPC     C32      CTL2    -0.220000       12.0110           0
      5634 MEMB     48       POPC     H2X      HAL2     0.900000E-01   1.00800           0
      5635 MEMB     48       POPC     H2Y      HAL2     0.900000E-01   1.00800           0
      5636 MEMB     48       POPC     C23      CTL2    -0.180000       12.0110           0
      5637 MEMB     48       POPC     H3R      HAL2     0.900000E-01   1.00800           0
      5638 MEMB     48       POPC     H3S      HAL2     0.900000E-01   1.00800           0
      5639 MEMB     48       POPC     C24      CTL2    -0.180000       12.0110           0
      5640 MEMB     48       POPC     H4R      HAL2     0.900000E-01   1.00800           0
      5641 MEMB     48       POPC     H4S      HAL2     0.900000E-01   1.00800           0
      5642 MEMB     48       POPC     C25      CTL2    -0.180000       12.0110           0
      5643 MEMB     48       POPC     H5R      HAL2     0.900000E-01   1.00800           0
      5644 MEMB     48       POPC     H5S      HAL2     0.900000E-01   1.00800           0
      5645 MEMB     48       POPC     C26      CTL2    -0.180000       12.0110           0
      5646 MEMB     48       POPC     H6R      HAL2     0.900000E-01   1.00800           0
      5647 MEMB     48       POPC     H6S      HAL2     0.900000E-01   1.00800           0
      5648 MEMB     48       POPC     C27      CTL2    -0.180000       12.0110           0
      5649 MEMB     48       POPC     H7R      HAL2     0.900000E-01   1.00800           0
      5650 MEMB     48       POPC     H7S      HAL2     0.900000E-01   1.00800           0
      5651 MEMB     48       POPC     C28      CTL2    -0.180000       12.0110           0
      5652 MEMB     48       POPC     H8R      HAL2     0.900000E-01   1.00800           0
      5653 MEMB     48       POPC     H8S      HAL2     0.900000E-01   1.00800           0
      5654 MEMB     48       POPC     C29      CEL1    -0.150000       12.0110           0
      5655 MEMB     48       POPC     H91      HEL1     0.150000       1.00800           0
      5656 MEMB     48       POPC     C210     CEL1    -0.150000       12.0110           0
      5657 MEMB     48       POPC     H101     HEL1     0.150000       1.00800           0
      5658 MEMB     48       POPC     C211     CTL2    -0.180000       12.0110           0
      5659 MEMB     48       POPC     H11R     HAL2     0.900000E-01   1.00800           0
      5660 MEMB     48       POPC     H11S     HAL2     0.900000E-01   1.00800           0
      5661 MEMB     48       POPC     C212     CTL2    -0.180000       12.0110           0
      5662 MEMB     48       POPC     H12R     HAL2     0.900000E-01   1.00800           0
      5663 MEMB     48       POPC     H12S     HAL2     0.900000E-01   1.00800           0
      5664 MEMB     48       POPC     C213     CTL2    -0.180000       12.0110           0
      5665 MEMB     48       POPC     H13R     HAL2     0.900000E-01   1.00800           0
      5666 MEMB     48       POPC     H13S     HAL2     0.900000E-01   1.00800           0
      5667 MEMB     48       POPC     C214     CTL2    -0.180000       12.0110           0
      5668 MEMB     48       POPC     H14R     HAL2     0.900000E-01   1.00800           0
      5669 MEMB     48       POPC     H14S     HAL2     0.900000E-01   1.00800           0
      5670 MEMB     48       POPC     C215     CTL2    -0.180000       12.0110           0
      5671 MEMB     48       POPC     H15R     HAL2     0.900000E-01   1.00800           0
      5672 MEMB     48       POPC     H15S     HAL2     0.900000E-01   1.00800           0
      5673 MEMB     48       POPC     C216     CTL2    -0.180000       12.0110           0
      5674 MEMB     48       POPC     H16R     HAL2     0.900000E-01   1.00800           0
      5675 MEMB     48       POPC     H16S     HAL2     0.900000E-01   1.00800           0
      5676 MEMB     48       POPC     C217     CTL2    -0.180000       12.0110           0
      5677 MEMB     48       POPC     H17R     HAL2     0.900000E-01   1.00800           0
      5678 MEMB     48       POPC     H17S     HAL2     0.900000E-01   1.00800           0
      5679 MEMB     48       POPC     C218     CTL3    -0.270000       12.0110           0
      5680 MEMB     48       POPC     H18R     HAL3     0.900000E-01   1.00800           0
      5681 MEMB     48       POPC     H18S     HAL3     0.900000E-01   1.00800           0
      5682 MEMB     48       POPC     H18T     HAL3     0.900000E-01   1.00800           0
      5683 MEMB     48       POPC     C33      CTL2    -0.180000       12.0110           0
      5684 MEMB     48       POPC     H3X      HAL2     0.900000E-01   1.00800           0
      5685 MEMB     48       POPC     H3Y      HAL2     0.900000E-01   1.00800           0
      5686 MEMB     48       POPC     C34      CTL2    -0.180000       12.0110           0
      5687 MEMB     48       POPC     H4X      HAL2     0.900000E-01   1.00800           0
      5688 MEMB     48       POPC     H4Y      HAL2     0.900000E-01   1.00800           0
      5689 MEMB     48       POPC     C35      CTL2    -0.180000       12.0110           0
      5690 MEMB     48       POPC     H5X      HAL2     0.900000E-01   1.00800           0
      5691 MEMB     48       POPC     H5Y      HAL2     0.900000E-01   1.00800           0
      5692 MEMB     48       POPC     C36      CTL2    -0.180000       12.0110           0
      5693 MEMB     48       POPC     H6X      HAL2     0.900000E-01   1.00800           0
      5694 MEMB     48       POPC     H6Y      HAL2     0.900000E-01   1.00800           0
      5695 MEMB     48       POPC     C37      CTL2    -0.180000       12.0110           0
      5696 MEMB     48       POPC     H7X      HAL2     0.900000E-01   1.00800           0
      5697 MEMB     48       POPC     H7Y      HAL2     0.900000E-01   1.00800           0
      5698 MEMB     48       POPC     C38      CTL2    -0.180000       12.0110           0
      5699 MEMB     48       POPC     H8X      HAL2     0.900000E-01   1.00800           0
      5700 MEMB     48       POPC     H8Y      HAL2     0.900000E-01   1.00800           0
      5701 MEMB     48       POPC     C39      CTL2    -0.180000       12.0110           0
      5702 MEMB     48       POPC     H9X      HAL2     0.900000E-01   1.00800           0
      5703 MEMB     48       POPC     H9Y      HAL2     0.900000E-01   1.00800           0
      5704 MEMB     48       POPC     C310     CTL2    -0.180000       12.0110           0
      5705 MEMB     48       POPC     H10X     HAL2     0.900000E-01   1.00800           0
      5706 MEMB     48       POPC     H10Y     HAL2     0.900000E-01   1.00800           0
      5707 MEMB     48       POPC     C311     CTL2    -0.180000       12.0110           0
      5708 MEMB     48       POPC     H11X     HAL2     0.900000E-01   1.00800           0
      5709 MEMB     48       POPC     H11Y     HAL2     0.900000E-01   1.00800           0
      5710 MEMB     48       POPC     C312     CTL2    -0.180000       12.0110           0
      5711 MEMB     48       POPC     H12X     HAL2     0.900000E-01   1.00800           0
      5712 MEMB     48       POPC     H12Y     HAL2     0.900000E-01   1.00800           0
      5713 MEMB     48       POPC     C313     CTL2    -0.180000       12.0110           0
      5714 MEMB     48       POPC     H13X     HAL2     0.900000E-01   1.00800           0
      5715 MEMB     48       POPC     H13Y     HAL2     0.900000E-01   1.00800           0
      5716 MEMB     48       POPC     C314     CTL2    -0.180000       12.0110           0
      5717 MEMB     48       POPC     H14X     HAL2     0.900000E-01   1.00800           0
      5718 MEMB     48       POPC     H14Y     HAL2     0.900000E-01   1.00800           0
      5719 MEMB     48       POPC     C315     CTL2    -0.180000       12.0110           0
      5720 MEMB     48       POPC     H15X     HAL2     0.900000E-01   1.00800           0
      5721 MEMB     48       POPC     H15Y     HAL2     0.900000E-01   1.00800           0
      5722 MEMB     48       POPC     C316     CTL3    -0.270000       12.0110           0
      5723 MEMB     48       POPC     H16X     HAL3     0.900000E-01   1.00800           0
      5724 MEMB     48       POPC     H16Y     HAL3     0.900000E-01   1.00800           0
      5725 MEMB     48       POPC     H16Z     HAL3     0.900000E-01   1.00800           0
      5726 MEMB     49       SAPS     N        NH3L    -0.300000       14.0070           0
      5727 MEMB     49       SAPS     HN1      HCL      0.330000       1.00800           0
      5728 MEMB     49       SAPS     HN2      HCL      0.330000       1.00800           0
      5729 MEMB     49       SAPS     HN3      HCL      0.330000       1.00800           0
      5730 MEMB     49       SAPS     C12      CTL1     0.210000       12.0110           0
      5731 MEMB     49       SAPS     H12A     HBL      0.100000       1.00800           0
      5732 MEMB     49       SAPS     C13      CCL      0.340000       12.0110           0
      5733 MEMB     49       SAPS     O13A     OCL     -0.670000       15.9994           0
      5734 MEMB     49       SAPS     O13B     OCL     -0.670000       15.9994           0
      5735 MEMB     49       SAPS     C11      CTL2    -0.800000E-01   12.0110           0
      5736 MEMB     49       SAPS     H11A     HAL2     0.900000E-01   1.00800           0
      5737 MEMB     49       SAPS     H11B     HAL2     0.900000E-01   1.00800           0
      5738 MEMB     49       SAPS     P        PL        1.50000       30.9740           0
      5739 MEMB     49       SAPS     O13      O2L     -0.780000       15.9994           0
      5740 MEMB     49       SAPS     O14      O2L     -0.780000       15.9994           0
      5741 MEMB     49       SAPS     O12      OSLP    -0.570000       15.9994           0
      5742 MEMB     49       SAPS     O11      OSLP    -0.570000       15.9994           0
      5743 MEMB     49       SAPS     C1       CTL2    -0.800000E-01   12.0110           0
      5744 MEMB     49       SAPS     HA       HAL2     0.900000E-01   1.00800           0
      5745 MEMB     49       SAPS     HB       HAL2     0.900000E-01   1.00800           0
      5746 MEMB     49       SAPS     C2       CTL1     0.170000       12.0110           0
      5747 MEMB     49       SAPS     HS       HAL1     0.900000E-01   1.00800           0
      5748 MEMB     49       SAPS     O21      OSL     -0.490000       15.9994           0
      5749 MEMB     49       SAPS     C21      CL       0.900000       12.0110           0
      5750 MEMB     49       SAPS     O22      OBL     -0.630000       15.9994           0
      5751 MEMB     49       SAPS     C22      CTL2    -0.220000       12.0110           0
      5752 MEMB     49       SAPS     H2R      HAL2     0.900000E-01   1.00800           0
      5753 MEMB     49       SAPS     H2S      HAL2     0.900000E-01   1.00800           0
      5754 MEMB     49       SAPS     C3       CTL2     0.800000E-01   12.0110           0
      5755 MEMB     49       SAPS     HX       HAL2     0.900000E-01   1.00800           0
      5756 MEMB     49       SAPS     HY       HAL2     0.900000E-01   1.00800           0
      5757 MEMB     49       SAPS     O31      OSL     -0.490000       15.9994           0
      5758 MEMB     49       SAPS     C31      CL       0.900000       12.0110           0
      5759 MEMB     49       SAPS     O32      OBL     -0.630000       15.9994           0
      5760 MEMB     49       SAPS     C32      CTL2    -0.220000       12.0110           0
      5761 MEMB     49       SAPS     H2X      HAL2     0.900000E-01   1.00800           0
      5762 MEMB     49       SAPS     H2Y      HAL2     0.900000E-01   1.00800           0
      5763 MEMB     49       SAPS     C23      CTL2    -0.180000       12.0110           0
      5764 MEMB     49       SAPS     H3R      HAL2     0.900000E-01   1.00800           0
      5765 MEMB     49       SAPS     H3S      HAL2     0.900000E-01   1.00800           0
      5766 MEMB     49       SAPS     C24      CTL2    -0.180000       12.0110           0
      5767 MEMB     49       SAPS     H4R      HAL2     0.900000E-01   1.00800           0
      5768 MEMB     49       SAPS     H4S      HAL2     0.900000E-01   1.00800           0
      5769 MEMB     49       SAPS     C25      CEL1    -0.150000       12.0110           0
      5770 MEMB     49       SAPS     H5R      HEL1     0.150000       1.00800           0
      5771 MEMB     49       SAPS     C26      CEL1    -0.150000       12.0110           0
      5772 MEMB     49       SAPS     H6R      HEL1     0.150000       1.00800           0
      5773 MEMB     49       SAPS     C27      CTL2    -0.180000       12.0110           0
      5774 MEMB     49       SAPS     H7R      HAL2     0.900000E-01   1.00800           0
      5775 MEMB     49       SAPS     H7S      HAL2     0.900000E-01   1.00800           0
      5776 MEMB     49       SAPS     C28      CEL1    -0.150000       12.0110           0
      5777 MEMB     49       SAPS     H8R      HEL1     0.150000       1.00800           0
      5778 MEMB     49       SAPS     C29      CEL1    -0.150000       12.0110           0
      5779 MEMB     49       SAPS     H9R      HEL1     0.150000       1.00800           0
      5780 MEMB     49       SAPS     C210     CTL2    -0.180000       12.0110           0
      5781 MEMB     49       SAPS     H10R     HAL2     0.900000E-01   1.00800           0
      5782 MEMB     49       SAPS     H10S     HAL2     0.900000E-01   1.00800           0
      5783 MEMB     49       SAPS     C211     CEL1    -0.150000       12.0110           0
      5784 MEMB     49       SAPS     H11R     HEL1     0.150000       1.00800           0
      5785 MEMB     49       SAPS     C212     CEL1    -0.150000       12.0110           0
      5786 MEMB     49       SAPS     H12R     HEL1     0.150000       1.00800           0
      5787 MEMB     49       SAPS     C213     CTL2    -0.180000       12.0110           0
      5788 MEMB     49       SAPS     H13R     HAL2     0.900000E-01   1.00800           0
      5789 MEMB     49       SAPS     H13S     HAL2     0.900000E-01   1.00800           0
      5790 MEMB     49       SAPS     C214     CEL1    -0.150000       12.0110           0
      5791 MEMB     49       SAPS     H14R     HEL1     0.150000       1.00800           0
      5792 MEMB     49       SAPS     C215     CEL1    -0.150000       12.0110           0
      5793 MEMB     49       SAPS     H15R     HEL1     0.150000       1.00800           0
      5794 MEMB     49       SAPS     C216     CTL2    -0.180000       12.0110           0
      5795 MEMB     49       SAPS     H16R     HAL2     0.900000E-01   1.00800           0
      5796 MEMB     49       SAPS     H16S     HAL2     0.900000E-01   1.00800           0
      5797 MEMB     49       SAPS     C217     CTL2    -0.180000       12.0110           0
      5798 MEMB     49       SAPS     H17R     HAL2     0.900000E-01   1.00800           0
      5799 MEMB     49       SAPS     H17S     HAL2     0.900000E-01   1.00800           0
      5800 MEMB     49       SAPS     C218     CTL2    -0.180000       12.0110           0
      5801 MEMB     49       SAPS     H18R     HAL2     0.900000E-01   1.00800           0
      5802 MEMB     49       SAPS     H18S     HAL2     0.900000E-01   1.00800           0
      5803 MEMB     49       SAPS     C219     CTL2    -0.180000       12.0110           0
      5804 MEMB     49       SAPS     H19R     HAL2     0.900000E-01   1.00800           0
      5805 MEMB     49       SAPS     H19S     HAL2     0.900000E-01   1.00800           0
      5806 MEMB     49       SAPS     C220     CTL3    -0.270000       12.0110           0
      5807 MEMB     49       SAPS     H20R     HAL3     0.900000E-01   1.00800           0
      5808 MEMB     49       SAPS     H20S     HAL3     0.900000E-01   1.00800           0
      5809 MEMB     49       SAPS     H20T     HAL3     0.900000E-01   1.00800           0
      5810 MEMB     49       SAPS     C33      CTL2    -0.180000       12.0110           0
      5811 MEMB     49       SAPS     H3X      HAL2     0.900000E-01   1.00800           0
      5812 MEMB     49       SAPS     H3Y      HAL2     0.900000E-01   1.00800           0
      5813 MEMB     49       SAPS     C34      CTL2    -0.180000       12.0110           0
      5814 MEMB     49       SAPS     H4X      HAL2     0.900000E-01   1.00800           0
      5815 MEMB     49       SAPS     H4Y      HAL2     0.900000E-01   1.00800           0
      5816 MEMB     49       SAPS     C35      CTL2    -0.180000       12.0110           0
      5817 MEMB     49       SAPS     H5X      HAL2     0.900000E-01   1.00800           0
      5818 MEMB     49       SAPS     H5Y      HAL2     0.900000E-01   1.00800           0
      5819 MEMB     49       SAPS     C36      CTL2    -0.180000       12.0110           0
      5820 MEMB     49       SAPS     H6X      HAL2     0.900000E-01   1.00800           0
      5821 MEMB     49       SAPS     H6Y      HAL2     0.900000E-01   1.00800           0
      5822 MEMB     49       SAPS     C37      CTL2    -0.180000       12.0110           0
      5823 MEMB     49       SAPS     H7X      HAL2     0.900000E-01   1.00800           0
      5824 MEMB     49       SAPS     H7Y      HAL2     0.900000E-01   1.00800           0
      5825 MEMB     49       SAPS     C38      CTL2    -0.180000       12.0110           0
      5826 MEMB     49       SAPS     H8X      HAL2     0.900000E-01   1.00800           0
      5827 MEMB     49       SAPS     H8Y      HAL2     0.900000E-01   1.00800           0
      5828 MEMB     49       SAPS     C39      CTL2    -0.180000       12.0110           0
      5829 MEMB     49       SAPS     H9X      HAL2     0.900000E-01   1.00800           0
      5830 MEMB     49       SAPS     H9Y      HAL2     0.900000E-01   1.00800           0
      5831 MEMB     49       SAPS     C310     CTL2    -0.180000       12.0110           0
      5832 MEMB     49       SAPS     H10X     HAL2     0.900000E-01   1.00800           0
      5833 MEMB     49       SAPS     H10Y     HAL2     0.900000E-01   1.00800           0
      5834 MEMB     49       SAPS     C311     CTL2    -0.180000       12.0110           0
      5835 MEMB     49       SAPS     H11X     HAL2     0.900000E-01   1.00800           0
      5836 MEMB     49       SAPS     H11Y     HAL2     0.900000E-01   1.00800           0
      5837 MEMB     49       SAPS     C312     CTL2    -0.180000       12.0110           0
      5838 MEMB     49       SAPS     H12X     HAL2     0.900000E-01   1.00800           0
      5839 MEMB     49       SAPS     H12Y     HAL2     0.900000E-01   1.00800           0
      5840 MEMB     49       SAPS     C313     CTL2    -0.180000       12.0110           0
      5841 MEMB     49       SAPS     H13X     HAL2     0.900000E-01   1.00800           0
      5842 MEMB     49       SAPS     H13Y     HAL2     0.900000E-01   1.00800           0
      5843 MEMB     49       SAPS     C314     CTL2    -0.180000       12.0110           0
      5844 MEMB     49       SAPS     H14X     HAL2     0.900000E-01   1.00800           0
      5845 MEMB     49       SAPS     H14Y     HAL2     0.900000E-01   1.00800           0
      5846 MEMB     49       SAPS     C315     CTL2    -0.180000       12.0110           0
      5847 MEMB     49       SAPS     H15X     HAL2     0.900000E-01   1.00800           0
      5848 MEMB     49       SAPS     H15Y     HAL2     0.900000E-01   1.00800           0
      5849 MEMB     49       SAPS     C316     CTL2    -0.180000       12.0110           0
      5850 MEMB     49       SAPS     H16X     HAL2     0.900000E-01   1.00800           0
      5851 MEMB     49       SAPS     H16Y     HAL2     0.900000E-01   1.00800           0
      5852 MEMB     49       SAPS     C317     CTL2    -0.180000       12.0110           0
      5853 MEMB     49       SAPS     H17X     HAL2     0.900000E-01   1.00800           0
      5854 MEMB     49       SAPS     H17Y     HAL2     0.900000E-01   1.00800           0
      5855 MEMB     49       SAPS     C318     CTL3    -0.270000       12.0110           0
      5856 MEMB     49       SAPS     H18X     HAL3     0.900000E-01   1.00800           0
      5857 MEMB     49       SAPS     H18Y     HAL3     0.900000E-01   1.00800           0
      5858 MEMB     49       SAPS     H18Z     HAL3     0.900000E-01   1.00800           0
      5859 MEMB     50       OSM      N        NTL     -0.600000       14.0070           0
      5860 MEMB     50       OSM      C15      CTL5    -0.350000       12.0110           0
      5861 MEMB     50       OSM      H15A     HL       0.250000       1.00800           0
      5862 MEMB     50       OSM      H15B     HL       0.250000       1.00800           0
      5863 MEMB     50       OSM      H15C     HL       0.250000       1.00800           0
      5864 MEMB     50       OSM      C14      CTL5    -0.350000       12.0110           0
      5865 MEMB     50       OSM      H14A     HL       0.250000       1.00800           0
      5866 MEMB     50       OSM      H14B     HL       0.250000       1.00800           0
      5867 MEMB     50       OSM      H14C     HL       0.250000       1.00800           0
      5868 MEMB     50       OSM      C13      CTL5    -0.350000       12.0110           0
      5869 MEMB     50       OSM      H13A     HL       0.250000       1.00800           0
      5870 MEMB     50       OSM      H13B     HL       0.250000       1.00800           0
      5871 MEMB     50       OSM      H13C     HL       0.250000       1.00800           0
      5872 MEMB     50       OSM      C12      CTL2    -0.100000       12.0110           0
      5873 MEMB     50       OSM      H12A     HL       0.250000       1.00800           0
      5874 MEMB     50       OSM      H12B     HL       0.250000       1.00800           0
      5875 MEMB     50       OSM      C11      CTL2    -0.800000E-01   12.0110           0
      5876 MEMB     50       OSM      H11A     HAL2     0.900000E-01   1.00800           0
      5877 MEMB     50       OSM      H11B     HAL2     0.900000E-01   1.00800           0
      5878 MEMB     50       OSM      P        PL        1.50000       30.9740           0
      5879 MEMB     50       OSM      O13      O2L     -0.780000       15.9994           0
      5880 MEMB     50       OSM      O14      O2L     -0.780000       15.9994           0
      5881 MEMB     50       OSM      O11      OSLP    -0.570000       15.9994           0
      5882 MEMB     50       OSM      O12      OSLP    -0.570000       15.9994           0
      5883 MEMB     50       OSM      C1S      CTL2    -0.800000E-01   12.0110           0
      5884 MEMB     50       OSM      H1S      HAL2     0.900000E-01   1.00800           0
      5885 MEMB     50       OSM      H1T      HAL2     0.900000E-01   1.00800           0
      5886 MEMB     50       OSM      NF       NHL     -0.700000       14.0070           0
      5887 MEMB     50       OSM      HNF      H        0.350000       1.00800           0
      5888 MEMB     50       OSM      C2S      CTL1     0.300000       12.0110           0
      5889 MEMB     50       OSM      H2S      HAL1     0.500000E-01   1.00800           0
      5890 MEMB     50       OSM      C3S      CTO1     0.500000       12.0110           0
      5891 MEMB     50       OSM      H3S      HAL1    -0.110000       1.00800           0
      5892 MEMB     50       OSM      O3       OHL     -0.690000       15.9994           0
      5893 MEMB     50       OSM      HO3      HOL      0.300000       1.00800           0
      5894 MEMB     50       OSM      C4S      CEL3    -0.150000       12.0110           0
      5895 MEMB     50       OSM      H4S      HEL1     0.150000       1.00800           0
      5896 MEMB     50       OSM      C5S      CEL3    -0.150000       12.0110           0
      5897 MEMB     50       OSM      H5S      HEL1     0.150000       1.00800           0
      5898 MEMB     50       OSM      C6S      CTL2    -0.180000       12.0110           0
      5899 MEMB     50       OSM      H6S      HAL2     0.900000E-01   1.00800           0
      5900 MEMB     50       OSM      H6T      HAL2     0.900000E-01   1.00800           0
      5901 MEMB     50       OSM      C7S      CTL2    -0.180000       12.0110           0
      5902 MEMB     50       OSM      H7S      HAL2     0.900000E-01   1.00800           0
      5903 MEMB     50       OSM      H7T      HAL2     0.900000E-01   1.00800           0
      5904 MEMB     50       OSM      C8S      CTL2    -0.180000       12.0110           0
      5905 MEMB     50       OSM      H8S      HAL2     0.900000E-01   1.00800           0
      5906 MEMB     50       OSM      H8T      HAL2     0.900000E-01   1.00800           0
      5907 MEMB     50       OSM      C9S      CTL2    -0.180000       12.0110           0
      5908 MEMB     50       OSM      H9S      HAL2     0.900000E-01   1.00800           0
      5909 MEMB     50       OSM      H9T      HAL2     0.900000E-01   1.00800           0
      5910 MEMB     50       OSM      C10S     CTL2    -0.180000       12.0110           0
      5911 MEMB     50       OSM      H10S     HAL2     0.900000E-01   1.00800           0
      5912 MEMB     50       OSM      H10T     HAL2     0.900000E-01   1.00800           0
      5913 MEMB     50       OSM      C11S     CTL2    -0.180000       12.0110           0
      5914 MEMB     50       OSM      H11S     HAL2     0.900000E-01   1.00800           0
      5915 MEMB     50       OSM      H11T     HAL2     0.900000E-01   1.00800           0
      5916 MEMB     50       OSM      C12S     CTL2    -0.180000       12.0110           0
      5917 MEMB     50       OSM      H12S     HAL2     0.900000E-01   1.00800           0
      5918 MEMB     50       OSM      H12T     HAL2     0.900000E-01   1.00800           0
      5919 MEMB     50       OSM      C13S     CTL2    -0.180000       12.0110           0
      5920 MEMB     50       OSM      H13S     HAL2     0.900000E-01   1.00800           0
      5921 MEMB     50       OSM      H13T     HAL2     0.900000E-01   1.00800           0
      5922 MEMB     50       OSM      C14S     CTL2    -0.180000       12.0110           0
      5923 MEMB     50       OSM      H14S     HAL2     0.900000E-01   1.00800           0
      5924 MEMB     50       OSM      H14T     HAL2     0.900000E-01   1.00800           0
      5925 MEMB     50       OSM      C15S     CTL2    -0.180000       12.0110           0
      5926 MEMB     50       OSM      H15S     HAL2     0.900000E-01   1.00800           0
      5927 MEMB     50       OSM      H15T     HAL2     0.900000E-01   1.00800           0
      5928 MEMB     50       OSM      C16S     CTL2    -0.180000       12.0110           0
      5929 MEMB     50       OSM      H16S     HAL2     0.900000E-01   1.00800           0
      5930 MEMB     50       OSM      H16T     HAL2     0.900000E-01   1.00800           0
      5931 MEMB     50       OSM      C17S     CTL2    -0.180000       12.0110           0
      5932 MEMB     50       OSM      H17S     HAL2     0.900000E-01   1.00800           0
      5933 MEMB     50       OSM      H17T     HAL2     0.900000E-01   1.00800           0
      5934 MEMB     50       OSM      C18S     CTL3    -0.270000       12.0110           0
      5935 MEMB     50       OSM      H18S     HAL3     0.900000E-01   1.00800           0
      5936 MEMB     50       OSM      H18T     HAL3     0.900000E-01   1.00800           0
      5937 MEMB     50       OSM      H18U     HAL3     0.900000E-01   1.00800           0
      5938 MEMB     50       OSM      C1F      C        0.550000       12.0110           0
      5939 MEMB     50       OSM      OF       O       -0.600000       15.9994           0
      5940 MEMB     50       OSM      C2F      CTL2    -0.700000E-01   12.0110           0
      5941 MEMB     50       OSM      H2F      HAL2     0.600000E-01   1.00800           0
      5942 MEMB     50       OSM      H2G      HAL2     0.600000E-01   1.00800           0
      5943 MEMB     50       OSM      C3F      CTL2    -0.180000       12.0110           0
      5944 MEMB     50       OSM      H3F      HAL2     0.900000E-01   1.00800           0
      5945 MEMB     50       OSM      H3G      HAL2     0.900000E-01   1.00800           0
      5946 MEMB     50       OSM      C4F      CTL2    -0.180000       12.0110           0
      5947 MEMB     50       OSM      H4F      HAL2     0.900000E-01   1.00800           0
      5948 MEMB     50       OSM      H4G      HAL2     0.900000E-01   1.00800           0
      5949 MEMB     50       OSM      C5F      CTL2    -0.180000       12.0110           0
      5950 MEMB     50       OSM      H5F      HAL2     0.900000E-01   1.00800           0
      5951 MEMB     50       OSM      H5G      HAL2     0.900000E-01   1.00800           0
      5952 MEMB     50       OSM      C6F      CTL2    -0.180000       12.0110           0
      5953 MEMB     50       OSM      H6F      HAL2     0.900000E-01   1.00800           0
      5954 MEMB     50       OSM      H6G      HAL2     0.900000E-01   1.00800           0
      5955 MEMB     50       OSM      C7F      CTL2    -0.180000       12.0110           0
      5956 MEMB     50       OSM      H7F      HAL2     0.900000E-01   1.00800           0
      5957 MEMB     50       OSM      H7G      HAL2     0.900000E-01   1.00800           0
      5958 MEMB     50       OSM      C8F      CTL2    -0.180000       12.0110           0
      5959 MEMB     50       OSM      H8F      HAL2     0.900000E-01   1.00800           0
      5960 MEMB     50       OSM      H8G      HAL2     0.900000E-01   1.00800           0
      5961 MEMB     50       OSM      C9F      CEL1    -0.150000       12.0110           0
      5962 MEMB     50       OSM      H9F      HEL1     0.150000       1.00800           0
      5963 MEMB     50       OSM      C10F     CEL1    -0.150000       12.0110           0
      5964 MEMB     50       OSM      H10F     HEL1     0.150000       1.00800           0
      5965 MEMB     50       OSM      C11F     CTL2    -0.180000       12.0110           0
      5966 MEMB     50       OSM      H11F     HAL2     0.900000E-01   1.00800           0
      5967 MEMB     50       OSM      H11G     HAL2     0.900000E-01   1.00800           0
      5968 MEMB     50       OSM      C12F     CTL2    -0.180000       12.0110           0
      5969 MEMB     50       OSM      H12F     HAL2     0.900000E-01   1.00800           0
      5970 MEMB     50       OSM      H12G     HAL2     0.900000E-01   1.00800           0
      5971 MEMB     50       OSM      C13F     CTL2    -0.180000       12.0110           0
      5972 MEMB     50       OSM      H13F     HAL2     0.900000E-01   1.00800           0
      5973 MEMB     50       OSM      H13G     HAL2     0.900000E-01   1.00800           0
      5974 MEMB     50       OSM      C14F     CTL2    -0.180000       12.0110           0
      5975 MEMB     50       OSM      H14F     HAL2     0.900000E-01   1.00800           0
      5976 MEMB     50       OSM      H14G     HAL2     0.900000E-01   1.00800           0
      5977 MEMB     50       OSM      C15F     CTL2    -0.180000       12.0110           0
      5978 MEMB     50       OSM      H15F     HAL2     0.900000E-01   1.00800           0
      5979 MEMB     50       OSM      H15G     HAL2     0.900000E-01   1.00800           0
      5980 MEMB     50       OSM      C16F     CTL2    -0.180000       12.0110           0
      5981 MEMB     50       OSM      H16F     HAL2     0.900000E-01   1.00800           0
      5982 MEMB     50       OSM      H16G     HAL2     0.900000E-01   1.00800           0
      5983 MEMB     50       OSM      C17F     CTL2    -0.180000       12.0110           0
      5984 MEMB     50       OSM      H17F     HAL2     0.900000E-01   1.00800           0
      5985 MEMB     50       OSM      H17G     HAL2     0.900000E-01   1.00800           0
      5986 MEMB     50       OSM      C18F     CTL3    -0.270000       12.0110           0
      5987 MEMB     50       OSM      H18F     HAL3     0.900000E-01   1.00800           0
      5988 MEMB     50       OSM      H18G     HAL3     0.900000E-01   1.00800           0
      5989 MEMB     50       OSM      H18H     HAL3     0.900000E-01   1.00800           0
      5990 MEMB     51       CHL1     C3       CRL1     0.140000       12.0110           0
      5991 MEMB     51       CHL1     H3       HGA1     0.900000E-01   1.00800           0
      5992 MEMB     51       CHL1     O3       OHL     -0.660000       15.9994           0
      5993 MEMB     51       CHL1     H3'      HOL      0.430000       1.00800           0
      5994 MEMB     51       CHL1     C4       CRL2    -0.180000       12.0110           0
      5995 MEMB     51       CHL1     H4A      HGA2     0.900000E-01   1.00800           0
      5996 MEMB     51       CHL1     H4B      HGA2     0.900000E-01   1.00800           0
      5997 MEMB     51       CHL1     C5       CEL1      0.00000       12.0110           0
      5998 MEMB     51       CHL1     C6       CEL1    -0.150000       12.0110           0
      5999 MEMB     51       CHL1     H6       HEL1     0.150000       1.00800           0
      6000 MEMB     51       CHL1     C7       CRL2    -0.180000       12.0110           0
      6001 MEMB     51       CHL1     H7A      HGA2     0.900000E-01   1.00800           0
      6002 MEMB     51       CHL1     H7B      HGA2     0.900000E-01   1.00800           0
      6003 MEMB     51       CHL1     C8       CRL1    -0.900000E-01   12.0110           0
      6004 MEMB     51       CHL1     H8       HGA1     0.900000E-01   1.00800           0
      6005 MEMB     51       CHL1     C14      CRL1    -0.900000E-01   12.0110           0
      6006 MEMB     51       CHL1     H14      HGA1     0.900000E-01   1.00800           0
      6007 MEMB     51       CHL1     C15      CRL2    -0.180000       12.0110           0
      6008 MEMB     51       CHL1     H15A     HGA2     0.900000E-01   1.00800           0
      6009 MEMB     51       CHL1     H15B     HGA2     0.900000E-01   1.00800           0
      6010 MEMB     51       CHL1     C16      CRL2    -0.180000       12.0110           0
      6011 MEMB     51       CHL1     H16A     HGA2     0.900000E-01   1.00800           0
      6012 MEMB     51       CHL1     H16B     HGA2     0.900000E-01   1.00800           0
      6013 MEMB     51       CHL1     C17      CRL1    -0.900000E-01   12.0110           0
      6014 MEMB     51       CHL1     H17      HGA1     0.900000E-01   1.00800           0
      6015 MEMB     51       CHL1     C13      CRL1      0.00000       12.0110           0
      6016 MEMB     51       CHL1     C18      CTL3    -0.270000       12.0110           0
      6017 MEMB     51       CHL1     H18A     HAL3     0.900000E-01   1.00800           0
      6018 MEMB     51       CHL1     H18B     HAL3     0.900000E-01   1.00800           0
      6019 MEMB     51       CHL1     H18C     HAL3     0.900000E-01   1.00800           0
      6020 MEMB     51       CHL1     C12      CRL2    -0.180000       12.0110           0
      6021 MEMB     51       CHL1     H12A     HGA2     0.900000E-01   1.00800           0
      6022 MEMB     51       CHL1     H12B     HGA2     0.900000E-01   1.00800           0
      6023 MEMB     51       CHL1     C11      CRL2    -0.180000       12.0110           0
      6024 MEMB     51       CHL1     H11A     HGA2     0.900000E-01   1.00800           0
      6025 MEMB     51       CHL1     H11B     HGA2     0.900000E-01   1.00800           0
      6026 MEMB     51       CHL1     C9       CRL1    -0.900000E-01   12.0110           0
      6027 MEMB     51       CHL1     H9       HGA1     0.900000E-01   1.00800           0
      6028 MEMB     51       CHL1     C10      CRL1      0.00000       12.0110           0
      6029 MEMB     51       CHL1     C19      CTL3    -0.270000       12.0110           0
      6030 MEMB     51       CHL1     H19A     HAL3     0.900000E-01   1.00800           0
      6031 MEMB     51       CHL1     H19B     HAL3     0.900000E-01   1.00800           0
      6032 MEMB     51       CHL1     H19C     HAL3     0.900000E-01   1.00800           0
      6033 MEMB     51       CHL1     C1       CRL2    -0.180000       12.0110           0
      6034 MEMB     51       CHL1     H1A      HGA2     0.900000E-01   1.00800           0
      6035 MEMB     51       CHL1     H1B      HGA2     0.900000E-01   1.00800           0
      6036 MEMB     51       CHL1     C2       CRL2    -0.180000       12.0110           0
      6037 MEMB     51       CHL1     H2A      HGA2     0.900000E-01   1.00800           0
      6038 MEMB     51       CHL1     H2B      HGA2     0.900000E-01   1.00800           0
      6039 MEMB     51       CHL1     C20      CTL1    -0.900000E-01   12.0110           0
      6040 MEMB     51       CHL1     H20      HAL1     0.900000E-01   1.00800           0
      6041 MEMB     51       CHL1     C21      CTL3    -0.270000       12.0110           0
      6042 MEMB     51       CHL1     H21A     HAL3     0.900000E-01   1.00800           0
      6043 MEMB     51       CHL1     H21B     HAL3     0.900000E-01   1.00800           0
      6044 MEMB     51       CHL1     H21C     HAL3     0.900000E-01   1.00800           0
      6045 MEMB     51       CHL1     C22      CTL2    -0.180000       12.0110           0
      6046 MEMB     51       CHL1     H22A     HAL2     0.900000E-01   1.00800           0
      6047 MEMB     51       CHL1     H22B     HAL2     0.900000E-01   1.00800           0
      6048 MEMB     51       CHL1     C23      CTL2    -0.180000       12.0110           0
      6049 MEMB     51       CHL1     H23A     HAL2     0.900000E-01   1.00800           0
      6050 MEMB     51       CHL1     H23B     HAL2     0.900000E-01   1.00800           0
      6051 MEMB     51       CHL1     C24      CTL2    -0.180000       12.0110           0
      6052 MEMB     51       CHL1     H24A     HAL2     0.900000E-01   1.00800           0
      6053 MEMB     51       CHL1     H24B     HAL2     0.900000E-01   1.00800           0
      6054 MEMB     51       CHL1     C25      CTL1    -0.900000E-01   12.0110           0
      6055 MEMB     51       CHL1     H25      HAL1     0.900000E-01   1.00800           0
      6056 MEMB     51       CHL1     C26      CTL3    -0.270000       12.0110           0
      6057 MEMB     51       CHL1     H26A     HAL3     0.900000E-01   1.00800           0
      6058 MEMB     51       CHL1     H26B     HAL3     0.900000E-01   1.00800           0
      6059 MEMB     51       CHL1     H26C     HAL3     0.900000E-01   1.00800           0
      6060 MEMB     51       CHL1     C27      CTL3    -0.270000       12.0110           0
      6061 MEMB     51       CHL1     H27A     HAL3     0.900000E-01   1.00800           0
      6062 MEMB     51       CHL1     H27B     HAL3     0.900000E-01   1.00800           0
      6063 MEMB     51       CHL1     H27C     HAL3     0.900000E-01   1.00800           0
      6064 MEMB     52       CHL1     C3       CRL1     0.140000       12.0110           0
      6065 MEMB     52       CHL1     H3       HGA1     0.900000E-01   1.00800           0
      6066 MEMB     52       CHL1     O3       OHL     -0.660000       15.9994           0
      6067 MEMB     52       CHL1     H3'      HOL      0.430000       1.00800           0
      6068 MEMB     52       CHL1     C4       CRL2    -0.180000       12.0110           0
      6069 MEMB     52       CHL1     H4A      HGA2     0.900000E-01   1.00800           0
      6070 MEMB     52       CHL1     H4B      HGA2     0.900000E-01   1.00800           0
      6071 MEMB     52       CHL1     C5       CEL1      0.00000       12.0110           0
      6072 MEMB     52       CHL1     C6       CEL1    -0.150000       12.0110           0
      6073 MEMB     52       CHL1     H6       HEL1     0.150000       1.00800           0
      6074 MEMB     52       CHL1     C7       CRL2    -0.180000       12.0110           0
      6075 MEMB     52       CHL1     H7A      HGA2     0.900000E-01   1.00800           0
      6076 MEMB     52       CHL1     H7B      HGA2     0.900000E-01   1.00800           0
      6077 MEMB     52       CHL1     C8       CRL1    -0.900000E-01   12.0110           0
      6078 MEMB     52       CHL1     H8       HGA1     0.900000E-01   1.00800           0
      6079 MEMB     52       CHL1     C14      CRL1    -0.900000E-01   12.0110           0
      6080 MEMB     52       CHL1     H14      HGA1     0.900000E-01   1.00800           0
      6081 MEMB     52       CHL1     C15      CRL2    -0.180000       12.0110           0
      6082 MEMB     52       CHL1     H15A     HGA2     0.900000E-01   1.00800           0
      6083 MEMB     52       CHL1     H15B     HGA2     0.900000E-01   1.00800           0
      6084 MEMB     52       CHL1     C16      CRL2    -0.180000       12.0110           0
      6085 MEMB     52       CHL1     H16A     HGA2     0.900000E-01   1.00800           0
      6086 MEMB     52       CHL1     H16B     HGA2     0.900000E-01   1.00800           0
      6087 MEMB     52       CHL1     C17      CRL1    -0.900000E-01   12.0110           0
      6088 MEMB     52       CHL1     H17      HGA1     0.900000E-01   1.00800           0
      6089 MEMB     52       CHL1     C13      CRL1      0.00000       12.0110           0
      6090 MEMB     52       CHL1     C18      CTL3    -0.270000       12.0110           0
      6091 MEMB     52       CHL1     H18A     HAL3     0.900000E-01   1.00800           0
      6092 MEMB     52       CHL1     H18B     HAL3     0.900000E-01   1.00800           0
      6093 MEMB     52       CHL1     H18C     HAL3     0.900000E-01   1.00800           0
      6094 MEMB     52       CHL1     C12      CRL2    -0.180000       12.0110           0
      6095 MEMB     52       CHL1     H12A     HGA2     0.900000E-01   1.00800           0
      6096 MEMB     52       CHL1     H12B     HGA2     0.900000E-01   1.00800           0
      6097 MEMB     52       CHL1     C11      CRL2    -0.180000       12.0110           0
      6098 MEMB     52       CHL1     H11A     HGA2     0.900000E-01   1.00800           0
      6099 MEMB     52       CHL1     H11B     HGA2     0.900000E-01   1.00800           0
      6100 MEMB     52       CHL1     C9       CRL1    -0.900000E-01   12.0110           0
      6101 MEMB     52       CHL1     H9       HGA1     0.900000E-01   1.00800           0
      6102 MEMB     52       CHL1     C10      CRL1      0.00000       12.0110           0
      6103 MEMB     52       CHL1     C19      CTL3    -0.270000       12.0110           0
      6104 MEMB     52       CHL1     H19A     HAL3     0.900000E-01   1.00800           0
      6105 MEMB     52       CHL1     H19B     HAL3     0.900000E-01   1.00800           0
      6106 MEMB     52       CHL1     H19C     HAL3     0.900000E-01   1.00800           0
      6107 MEMB     52       CHL1     C1       CRL2    -0.180000       12.0110           0
      6108 MEMB     52       CHL1     H1A      HGA2     0.900000E-01   1.00800           0
      6109 MEMB     52       CHL1     H1B      HGA2     0.900000E-01   1.00800           0
      6110 MEMB     52       CHL1     C2       CRL2    -0.180000       12.0110           0
      6111 MEMB     52       CHL1     H2A      HGA2     0.900000E-01   1.00800           0
      6112 MEMB     52       CHL1     H2B      HGA2     0.900000E-01   1.00800           0
      6113 MEMB     52       CHL1     C20      CTL1    -0.900000E-01   12.0110           0
      6114 MEMB     52       CHL1     H20      HAL1     0.900000E-01   1.00800           0
      6115 MEMB     52       CHL1     C21      CTL3    -0.270000       12.0110           0
      6116 MEMB     52       CHL1     H21A     HAL3     0.900000E-01   1.00800           0
      6117 MEMB     52       CHL1     H21B     HAL3     0.900000E-01   1.00800           0
      6118 MEMB     52       CHL1     H21C     HAL3     0.900000E-01   1.00800           0
      6119 MEMB     52       CHL1     C22      CTL2    -0.180000       12.0110           0
      6120 MEMB     52       CHL1     H22A     HAL2     0.900000E-01   1.00800           0
      6121 MEMB     52       CHL1     H22B     HAL2     0.900000E-01   1.00800           0
      6122 MEMB     52       CHL1     C23      CTL2    -0.180000       12.0110           0
      6123 MEMB     52       CHL1     H23A     HAL2     0.900000E-01   1.00800           0
      6124 MEMB     52       CHL1     H23B     HAL2     0.900000E-01   1.00800           0
      6125 MEMB     52       CHL1     C24      CTL2    -0.180000       12.0110           0
      6126 MEMB     52       CHL1     H24A     HAL2     0.900000E-01   1.00800           0
      6127 MEMB     52       CHL1     H24B     HAL2     0.900000E-01   1.00800           0
      6128 MEMB     52       CHL1     C25      CTL1    -0.900000E-01   12.0110           0
      6129 MEMB     52       CHL1     H25      HAL1     0.900000E-01   1.00800           0
      6130 MEMB     52       CHL1     C26      CTL3    -0.270000       12.0110           0
      6131 MEMB     52       CHL1     H26A     HAL3     0.900000E-01   1.00800           0
      6132 MEMB     52       CHL1     H26B     HAL3     0.900000E-01   1.00800           0
      6133 MEMB     52       CHL1     H26C     HAL3     0.900000E-01   1.00800           0
      6134 MEMB     52       CHL1     C27      CTL3    -0.270000       12.0110           0
      6135 MEMB     52       CHL1     H27A     HAL3     0.900000E-01   1.00800           0
      6136 MEMB     52       CHL1     H27B     HAL3     0.900000E-01   1.00800           0
      6137 MEMB     52       CHL1     H27C     HAL3     0.900000E-01   1.00800           0
      6138 MEMB     53       CHL1     C3       CRL1     0.140000       12.0110           0
      6139 MEMB     53       CHL1     H3       HGA1     0.900000E-01   1.00800           0
      6140 MEMB     53       CHL1     O3       OHL     -0.660000       15.9994           0
      6141 MEMB     53       CHL1     H3'      HOL      0.430000       1.00800           0
      6142 MEMB     53       CHL1     C4       CRL2    -0.180000       12.0110           0
      6143 MEMB     53       CHL1     H4A      HGA2     0.900000E-01   1.00800           0
      6144 MEMB     53       CHL1     H4B      HGA2     0.900000E-01   1.00800           0
      6145 MEMB     53       CHL1     C5       CEL1      0.00000       12.0110           0
      6146 MEMB     53       CHL1     C6       CEL1    -0.150000       12.0110           0
      6147 MEMB     53       CHL1     H6       HEL1     0.150000       1.00800           0
      6148 MEMB     53       CHL1     C7       CRL2    -0.180000       12.0110           0
      6149 MEMB     53       CHL1     H7A      HGA2     0.900000E-01   1.00800           0
      6150 MEMB     53       CHL1     H7B      HGA2     0.900000E-01   1.00800           0
      6151 MEMB     53       CHL1     C8       CRL1    -0.900000E-01   12.0110           0
      6152 MEMB     53       CHL1     H8       HGA1     0.900000E-01   1.00800           0
      6153 MEMB     53       CHL1     C14      CRL1    -0.900000E-01   12.0110           0
      6154 MEMB     53       CHL1     H14      HGA1     0.900000E-01   1.00800           0
      6155 MEMB     53       CHL1     C15      CRL2    -0.180000       12.0110           0
      6156 MEMB     53       CHL1     H15A     HGA2     0.900000E-01   1.00800           0
      6157 MEMB     53       CHL1     H15B     HGA2     0.900000E-01   1.00800           0
      6158 MEMB     53       CHL1     C16      CRL2    -0.180000       12.0110           0
      6159 MEMB     53       CHL1     H16A     HGA2     0.900000E-01   1.00800           0
      6160 MEMB     53       CHL1     H16B     HGA2     0.900000E-01   1.00800           0
      6161 MEMB     53       CHL1     C17      CRL1    -0.900000E-01   12.0110           0
      6162 MEMB     53       CHL1     H17      HGA1     0.900000E-01   1.00800           0
      6163 MEMB     53       CHL1     C13      CRL1      0.00000       12.0110           0
      6164 MEMB     53       CHL1     C18      CTL3    -0.270000       12.0110           0
      6165 MEMB     53       CHL1     H18A     HAL3     0.900000E-01   1.00800           0
      6166 MEMB     53       CHL1     H18B     HAL3     0.900000E-01   1.00800           0
      6167 MEMB     53       CHL1     H18C     HAL3     0.900000E-01   1.00800           0
      6168 MEMB     53       CHL1     C12      CRL2    -0.180000       12.0110           0
      6169 MEMB     53       CHL1     H12A     HGA2     0.900000E-01   1.00800           0
      6170 MEMB     53       CHL1     H12B     HGA2     0.900000E-01   1.00800           0
      6171 MEMB     53       CHL1     C11      CRL2    -0.180000       12.0110           0
      6172 MEMB     53       CHL1     H11A     HGA2     0.900000E-01   1.00800           0
      6173 MEMB     53       CHL1     H11B     HGA2     0.900000E-01   1.00800           0
      6174 MEMB     53       CHL1     C9       CRL1    -0.900000E-01   12.0110           0
      6175 MEMB     53       CHL1     H9       HGA1     0.900000E-01   1.00800           0
      6176 MEMB     53       CHL1     C10      CRL1      0.00000       12.0110           0
      6177 MEMB     53       CHL1     C19      CTL3    -0.270000       12.0110           0
      6178 MEMB     53       CHL1     H19A     HAL3     0.900000E-01   1.00800           0
      6179 MEMB     53       CHL1     H19B     HAL3     0.900000E-01   1.00800           0
      6180 MEMB     53       CHL1     H19C     HAL3     0.900000E-01   1.00800           0
      6181 MEMB     53       CHL1     C1       CRL2    -0.180000       12.0110           0
      6182 MEMB     53       CHL1     H1A      HGA2     0.900000E-01   1.00800           0
      6183 MEMB     53       CHL1     H1B      HGA2     0.900000E-01   1.00800           0
      6184 MEMB     53       CHL1     C2       CRL2    -0.180000       12.0110           0
      6185 MEMB     53       CHL1     H2A      HGA2     0.900000E-01   1.00800           0
      6186 MEMB     53       CHL1     H2B      HGA2     0.900000E-01   1.00800           0
      6187 MEMB     53       CHL1     C20      CTL1    -0.900000E-01   12.0110           0
      6188 MEMB     53       CHL1     H20      HAL1     0.900000E-01   1.00800           0
      6189 MEMB     53       CHL1     C21      CTL3    -0.270000       12.0110           0
      6190 MEMB     53       CHL1     H21A     HAL3     0.900000E-01   1.00800           0
      6191 MEMB     53       CHL1     H21B     HAL3     0.900000E-01   1.00800           0
      6192 MEMB     53       CHL1     H21C     HAL3     0.900000E-01   1.00800           0
      6193 MEMB     53       CHL1     C22      CTL2    -0.180000       12.0110           0
      6194 MEMB     53       CHL1     H22A     HAL2     0.900000E-01   1.00800           0
      6195 MEMB     53       CHL1     H22B     HAL2     0.900000E-01   1.00800           0
      6196 MEMB     53       CHL1     C23      CTL2    -0.180000       12.0110           0
      6197 MEMB     53       CHL1     H23A     HAL2     0.900000E-01   1.00800           0
      6198 MEMB     53       CHL1     H23B     HAL2     0.900000E-01   1.00800           0
      6199 MEMB     53       CHL1     C24      CTL2    -0.180000       12.0110           0
      6200 MEMB     53       CHL1     H24A     HAL2     0.900000E-01   1.00800           0
      6201 MEMB     53       CHL1     H24B     HAL2     0.900000E-01   1.00800           0
      6202 MEMB     53       CHL1     C25      CTL1    -0.900000E-01   12.0110           0
      6203 MEMB     53       CHL1     H25      HAL1     0.900000E-01   1.00800           0
      6204 MEMB     53       CHL1     C26      CTL3    -0.270000       12.0110           0
      6205 MEMB     53       CHL1     H26A     HAL3     0.900000E-01   1.00800           0
      6206 MEMB     53       CHL1     H26B     HAL3     0.900000E-01   1.00800           0
      6207 MEMB     53       CHL1     H26C     HAL3     0.900000E-01   1.00800           0
      6208 MEMB     53       CHL1     C27      CTL3    -0.270000       12.0110           0
      6209 MEMB     53       CHL1     H27A     HAL3     0.900000E-01   1.00800           0
      6210 MEMB     53       CHL1     H27B     HAL3     0.900000E-01   1.00800           0
      6211 MEMB     53       CHL1     H27C     HAL3     0.900000E-01   1.00800           0
      6212 MEMB     54       POPC     N        NTL     -0.600000       14.0070           0
      6213 MEMB     54       POPC     C12      CTL2    -0.100000       12.0110           0
      6214 MEMB     54       POPC     H12A     HL       0.250000       1.00800           0
      6215 MEMB     54       POPC     H12B     HL       0.250000       1.00800           0
      6216 MEMB     54       POPC     C13      CTL5    -0.350000       12.0110           0
      6217 MEMB     54       POPC     H13A     HL       0.250000       1.00800           0
      6218 MEMB     54       POPC     H13B     HL       0.250000       1.00800           0
      6219 MEMB     54       POPC     H13C     HL       0.250000       1.00800           0
      6220 MEMB     54       POPC     C14      CTL5    -0.350000       12.0110           0
      6221 MEMB     54       POPC     H14A     HL       0.250000       1.00800           0
      6222 MEMB     54       POPC     H14B     HL       0.250000       1.00800           0
      6223 MEMB     54       POPC     H14C     HL       0.250000       1.00800           0
      6224 MEMB     54       POPC     C15      CTL5    -0.350000       12.0110           0
      6225 MEMB     54       POPC     H15A     HL       0.250000       1.00800           0
      6226 MEMB     54       POPC     H15B     HL       0.250000       1.00800           0
      6227 MEMB     54       POPC     H15C     HL       0.250000       1.00800           0
      6228 MEMB     54       POPC     C11      CTL2    -0.800000E-01   12.0110           0
      6229 MEMB     54       POPC     H11A     HAL2     0.900000E-01   1.00800           0
      6230 MEMB     54       POPC     H11B     HAL2     0.900000E-01   1.00800           0
      6231 MEMB     54       POPC     P        PL        1.50000       30.9740           0
      6232 MEMB     54       POPC     O13      O2L     -0.780000       15.9994           0
      6233 MEMB     54       POPC     O14      O2L     -0.780000       15.9994           0
      6234 MEMB     54       POPC     O12      OSLP    -0.570000       15.9994           0
      6235 MEMB     54       POPC     O11      OSLP    -0.570000       15.9994           0
      6236 MEMB     54       POPC     C1       CTL2    -0.800000E-01   12.0110           0
      6237 MEMB     54       POPC     HA       HAL2     0.900000E-01   1.00800           0
      6238 MEMB     54       POPC     HB       HAL2     0.900000E-01   1.00800           0
      6239 MEMB     54       POPC     C2       CTL1     0.170000       12.0110           0
      6240 MEMB     54       POPC     HS       HAL1     0.900000E-01   1.00800           0
      6241 MEMB     54       POPC     O21      OSL     -0.490000       15.9994           0
      6242 MEMB     54       POPC     C21      CL       0.900000       12.0110           0
      6243 MEMB     54       POPC     O22      OBL     -0.630000       15.9994           0
      6244 MEMB     54       POPC     C22      CTL2    -0.220000       12.0110           0
      6245 MEMB     54       POPC     H2R      HAL2     0.900000E-01   1.00800           0
      6246 MEMB     54       POPC     H2S      HAL2     0.900000E-01   1.00800           0
      6247 MEMB     54       POPC     C3       CTL2     0.800000E-01   12.0110           0
      6248 MEMB     54       POPC     HX       HAL2     0.900000E-01   1.00800           0
      6249 MEMB     54       POPC     HY       HAL2     0.900000E-01   1.00800           0
      6250 MEMB     54       POPC     O31      OSL     -0.490000       15.9994           0
      6251 MEMB     54       POPC     C31      CL       0.900000       12.0110           0
      6252 MEMB     54       POPC     O32      OBL     -0.630000       15.9994           0
      6253 MEMB     54       POPC     C32      CTL2    -0.220000       12.0110           0
      6254 MEMB     54       POPC     H2X      HAL2     0.900000E-01   1.00800           0
      6255 MEMB     54       POPC     H2Y      HAL2     0.900000E-01   1.00800           0
      6256 MEMB     54       POPC     C23      CTL2    -0.180000       12.0110           0
      6257 MEMB     54       POPC     H3R      HAL2     0.900000E-01   1.00800           0
      6258 MEMB     54       POPC     H3S      HAL2     0.900000E-01   1.00800           0
      6259 MEMB     54       POPC     C24      CTL2    -0.180000       12.0110           0
      6260 MEMB     54       POPC     H4R      HAL2     0.900000E-01   1.00800           0
      6261 MEMB     54       POPC     H4S      HAL2     0.900000E-01   1.00800           0
      6262 MEMB     54       POPC     C25      CTL2    -0.180000       12.0110           0
      6263 MEMB     54       POPC     H5R      HAL2     0.900000E-01   1.00800           0
      6264 MEMB     54       POPC     H5S      HAL2     0.900000E-01   1.00800           0
      6265 MEMB     54       POPC     C26      CTL2    -0.180000       12.0110           0
      6266 MEMB     54       POPC     H6R      HAL2     0.900000E-01   1.00800           0
      6267 MEMB     54       POPC     H6S      HAL2     0.900000E-01   1.00800           0
      6268 MEMB     54       POPC     C27      CTL2    -0.180000       12.0110           0
      6269 MEMB     54       POPC     H7R      HAL2     0.900000E-01   1.00800           0
      6270 MEMB     54       POPC     H7S      HAL2     0.900000E-01   1.00800           0
      6271 MEMB     54       POPC     C28      CTL2    -0.180000       12.0110           0
      6272 MEMB     54       POPC     H8R      HAL2     0.900000E-01   1.00800           0
      6273 MEMB     54       POPC     H8S      HAL2     0.900000E-01   1.00800           0
      6274 MEMB     54       POPC     C29      CEL1    -0.150000       12.0110           0
      6275 MEMB     54       POPC     H91      HEL1     0.150000       1.00800           0
      6276 MEMB     54       POPC     C210     CEL1    -0.150000       12.0110           0
      6277 MEMB     54       POPC     H101     HEL1     0.150000       1.00800           0
      6278 MEMB     54       POPC     C211     CTL2    -0.180000       12.0110           0
      6279 MEMB     54       POPC     H11R     HAL2     0.900000E-01   1.00800           0
      6280 MEMB     54       POPC     H11S     HAL2     0.900000E-01   1.00800           0
      6281 MEMB     54       POPC     C212     CTL2    -0.180000       12.0110           0
      6282 MEMB     54       POPC     H12R     HAL2     0.900000E-01   1.00800           0
      6283 MEMB     54       POPC     H12S     HAL2     0.900000E-01   1.00800           0
      6284 MEMB     54       POPC     C213     CTL2    -0.180000       12.0110           0
      6285 MEMB     54       POPC     H13R     HAL2     0.900000E-01   1.00800           0
      6286 MEMB     54       POPC     H13S     HAL2     0.900000E-01   1.00800           0
      6287 MEMB     54       POPC     C214     CTL2    -0.180000       12.0110           0
      6288 MEMB     54       POPC     H14R     HAL2     0.900000E-01   1.00800           0
      6289 MEMB     54       POPC     H14S     HAL2     0.900000E-01   1.00800           0
      6290 MEMB     54       POPC     C215     CTL2    -0.180000       12.0110           0
      6291 MEMB     54       POPC     H15R     HAL2     0.900000E-01   1.00800           0
      6292 MEMB     54       POPC     H15S     HAL2     0.900000E-01   1.00800           0
      6293 MEMB     54       POPC     C216     CTL2    -0.180000       12.0110           0
      6294 MEMB     54       POPC     H16R     HAL2     0.900000E-01   1.00800           0
      6295 MEMB     54       POPC     H16S     HAL2     0.900000E-01   1.00800           0
      6296 MEMB     54       POPC     C217     CTL2    -0.180000       12.0110           0
      6297 MEMB     54       POPC     H17R     HAL2     0.900000E-01   1.00800           0
      6298 MEMB     54       POPC     H17S     HAL2     0.900000E-01   1.00800           0
      6299 MEMB     54       POPC     C218     CTL3    -0.270000       12.0110           0
      6300 MEMB     54       POPC     H18R     HAL3     0.900000E-01   1.00800           0
      6301 MEMB     54       POPC     H18S     HAL3     0.900000E-01   1.00800           0
      6302 MEMB     54       POPC     H18T     HAL3     0.900000E-01   1.00800           0
      6303 MEMB     54       POPC     C33      CTL2    -0.180000       12.0110           0
      6304 MEMB     54       POPC     H3X      HAL2     0.900000E-01   1.00800           0
      6305 MEMB     54       POPC     H3Y      HAL2     0.900000E-01   1.00800           0
      6306 MEMB     54       POPC     C34      CTL2    -0.180000       12.0110           0
      6307 MEMB     54       POPC     H4X      HAL2     0.900000E-01   1.00800           0
      6308 MEMB     54       POPC     H4Y      HAL2     0.900000E-01   1.00800           0
      6309 MEMB     54       POPC     C35      CTL2    -0.180000       12.0110           0
      6310 MEMB     54       POPC     H5X      HAL2     0.900000E-01   1.00800           0
      6311 MEMB     54       POPC     H5Y      HAL2     0.900000E-01   1.00800           0
      6312 MEMB     54       POPC     C36      CTL2    -0.180000       12.0110           0
      6313 MEMB     54       POPC     H6X      HAL2     0.900000E-01   1.00800           0
      6314 MEMB     54       POPC     H6Y      HAL2     0.900000E-01   1.00800           0
      6315 MEMB     54       POPC     C37      CTL2    -0.180000       12.0110           0
      6316 MEMB     54       POPC     H7X      HAL2     0.900000E-01   1.00800           0
      6317 MEMB     54       POPC     H7Y      HAL2     0.900000E-01   1.00800           0
      6318 MEMB     54       POPC     C38      CTL2    -0.180000       12.0110           0
      6319 MEMB     54       POPC     H8X      HAL2     0.900000E-01   1.00800           0
      6320 MEMB     54       POPC     H8Y      HAL2     0.900000E-01   1.00800           0
      6321 MEMB     54       POPC     C39      CTL2    -0.180000       12.0110           0
      6322 MEMB     54       POPC     H9X      HAL2     0.900000E-01   1.00800           0
      6323 MEMB     54       POPC     H9Y      HAL2     0.900000E-01   1.00800           0
      6324 MEMB     54       POPC     C310     CTL2    -0.180000       12.0110           0
      6325 MEMB     54       POPC     H10X     HAL2     0.900000E-01   1.00800           0
      6326 MEMB     54       POPC     H10Y     HAL2     0.900000E-01   1.00800           0
      6327 MEMB     54       POPC     C311     CTL2    -0.180000       12.0110           0
      6328 MEMB     54       POPC     H11X     HAL2     0.900000E-01   1.00800           0
      6329 MEMB     54       POPC     H11Y     HAL2     0.900000E-01   1.00800           0
      6330 MEMB     54       POPC     C312     CTL2    -0.180000       12.0110           0
      6331 MEMB     54       POPC     H12X     HAL2     0.900000E-01   1.00800           0
      6332 MEMB     54       POPC     H12Y     HAL2     0.900000E-01   1.00800           0
      6333 MEMB     54       POPC     C313     CTL2    -0.180000       12.0110           0
      6334 MEMB     54       POPC     H13X     HAL2     0.900000E-01   1.00800           0
      6335 MEMB     54       POPC     H13Y     HAL2     0.900000E-01   1.00800           0
      6336 MEMB     54       POPC     C314     CTL2    -0.180000       12.0110           0
      6337 MEMB     54       POPC     H14X     HAL2     0.900000E-01   1.00800           0
      6338 MEMB     54       POPC     H14Y     HAL2     0.900000E-01   1.00800           0
      6339 MEMB     54       POPC     C315     CTL2    -0.180000       12.0110           0
      6340 MEMB     54       POPC     H15X     HAL2     0.900000E-01   1.00800           0
      6341 MEMB     54       POPC     H15Y     HAL2     0.900000E-01   1.00800           0
      6342 MEMB     54       POPC     C316     CTL3    -0.270000       12.0110           0
      6343 MEMB     54       POPC     H16X     HAL3     0.900000E-01   1.00800           0
      6344 MEMB     54       POPC     H16Y     HAL3     0.900000E-01   1.00800           0
      6345 MEMB     54       POPC     H16Z     HAL3     0.900000E-01   1.00800           0
      6346 MEMB     55       CHL1     C3       CRL1     0.140000       12.0110           0
      6347 MEMB     55       CHL1     H3       HGA1     0.900000E-01   1.00800           0
      6348 MEMB     55       CHL1     O3       OHL     -0.660000       15.9994           0
      6349 MEMB     55       CHL1     H3'      HOL      0.430000       1.00800           0
      6350 MEMB     55       CHL1     C4       CRL2    -0.180000       12.0110           0
      6351 MEMB     55       CHL1     H4A      HGA2     0.900000E-01   1.00800           0
      6352 MEMB     55       CHL1     H4B      HGA2     0.900000E-01   1.00800           0
      6353 MEMB     55       CHL1     C5       CEL1      0.00000       12.0110           0
      6354 MEMB     55       CHL1     C6       CEL1    -0.150000       12.0110           0
      6355 MEMB     55       CHL1     H6       HEL1     0.150000       1.00800           0
      6356 MEMB     55       CHL1     C7       CRL2    -0.180000       12.0110           0
      6357 MEMB     55       CHL1     H7A      HGA2     0.900000E-01   1.00800           0
      6358 MEMB     55       CHL1     H7B      HGA2     0.900000E-01   1.00800           0
      6359 MEMB     55       CHL1     C8       CRL1    -0.900000E-01   12.0110           0
      6360 MEMB     55       CHL1     H8       HGA1     0.900000E-01   1.00800           0
      6361 MEMB     55       CHL1     C14      CRL1    -0.900000E-01   12.0110           0
      6362 MEMB     55       CHL1     H14      HGA1     0.900000E-01   1.00800           0
      6363 MEMB     55       CHL1     C15      CRL2    -0.180000       12.0110           0
      6364 MEMB     55       CHL1     H15A     HGA2     0.900000E-01   1.00800           0
      6365 MEMB     55       CHL1     H15B     HGA2     0.900000E-01   1.00800           0
      6366 MEMB     55       CHL1     C16      CRL2    -0.180000       12.0110           0
      6367 MEMB     55       CHL1     H16A     HGA2     0.900000E-01   1.00800           0
      6368 MEMB     55       CHL1     H16B     HGA2     0.900000E-01   1.00800           0
      6369 MEMB     55       CHL1     C17      CRL1    -0.900000E-01   12.0110           0
      6370 MEMB     55       CHL1     H17      HGA1     0.900000E-01   1.00800           0
      6371 MEMB     55       CHL1     C13      CRL1      0.00000       12.0110           0
      6372 MEMB     55       CHL1     C18      CTL3    -0.270000       12.0110           0
      6373 MEMB     55       CHL1     H18A     HAL3     0.900000E-01   1.00800           0
      6374 MEMB     55       CHL1     H18B     HAL3     0.900000E-01   1.00800           0
      6375 MEMB     55       CHL1     H18C     HAL3     0.900000E-01   1.00800           0
      6376 MEMB     55       CHL1     C12      CRL2    -0.180000       12.0110           0
      6377 MEMB     55       CHL1     H12A     HGA2     0.900000E-01   1.00800           0
      6378 MEMB     55       CHL1     H12B     HGA2     0.900000E-01   1.00800           0
      6379 MEMB     55       CHL1     C11      CRL2    -0.180000       12.0110           0
      6380 MEMB     55       CHL1     H11A     HGA2     0.900000E-01   1.00800           0
      6381 MEMB     55       CHL1     H11B     HGA2     0.900000E-01   1.00800           0
      6382 MEMB     55       CHL1     C9       CRL1    -0.900000E-01   12.0110           0
      6383 MEMB     55       CHL1     H9       HGA1     0.900000E-01   1.00800           0
      6384 MEMB     55       CHL1     C10      CRL1      0.00000       12.0110           0
      6385 MEMB     55       CHL1     C19      CTL3    -0.270000       12.0110           0
      6386 MEMB     55       CHL1     H19A     HAL3     0.900000E-01   1.00800           0
      6387 MEMB     55       CHL1     H19B     HAL3     0.900000E-01   1.00800           0
      6388 MEMB     55       CHL1     H19C     HAL3     0.900000E-01   1.00800           0
      6389 MEMB     55       CHL1     C1       CRL2    -0.180000       12.0110           0
      6390 MEMB     55       CHL1     H1A      HGA2     0.900000E-01   1.00800           0
      6391 MEMB     55       CHL1     H1B      HGA2     0.900000E-01   1.00800           0
      6392 MEMB     55       CHL1     C2       CRL2    -0.180000       12.0110           0
      6393 MEMB     55       CHL1     H2A      HGA2     0.900000E-01   1.00800           0
      6394 MEMB     55       CHL1     H2B      HGA2     0.900000E-01   1.00800           0
      6395 MEMB     55       CHL1     C20      CTL1    -0.900000E-01   12.0110           0
      6396 MEMB     55       CHL1     H20      HAL1     0.900000E-01   1.00800           0
      6397 MEMB     55       CHL1     C21      CTL3    -0.270000       12.0110           0
      6398 MEMB     55       CHL1     H21A     HAL3     0.900000E-01   1.00800           0
      6399 MEMB     55       CHL1     H21B     HAL3     0.900000E-01   1.00800           0
      6400 MEMB     55       CHL1     H21C     HAL3     0.900000E-01   1.00800           0
      6401 MEMB     55       CHL1     C22      CTL2    -0.180000       12.0110           0
      6402 MEMB     55       CHL1     H22A     HAL2     0.900000E-01   1.00800           0
      6403 MEMB     55       CHL1     H22B     HAL2     0.900000E-01   1.00800           0
      6404 MEMB     55       CHL1     C23      CTL2    -0.180000       12.0110           0
      6405 MEMB     55       CHL1     H23A     HAL2     0.900000E-01   1.00800           0
      6406 MEMB     55       CHL1     H23B     HAL2     0.900000E-01   1.00800           0
      6407 MEMB     55       CHL1     C24      CTL2    -0.180000       12.0110           0
      6408 MEMB     55       CHL1     H24A     HAL2     0.900000E-01   1.00800           0
      6409 MEMB     55       CHL1     H24B     HAL2     0.900000E-01   1.00800           0
      6410 MEMB     55       CHL1     C25      CTL1    -0.900000E-01   12.0110           0
      6411 MEMB     55       CHL1     H25      HAL1     0.900000E-01   1.00800           0
      6412 MEMB     55       CHL1     C26      CTL3    -0.270000       12.0110           0
      6413 MEMB     55       CHL1     H26A     HAL3     0.900000E-01   1.00800           0
      6414 MEMB     55       CHL1     H26B     HAL3     0.900000E-01   1.00800           0
      6415 MEMB     55       CHL1     H26C     HAL3     0.900000E-01   1.00800           0
      6416 MEMB     55       CHL1     C27      CTL3    -0.270000       12.0110           0
      6417 MEMB     55       CHL1     H27A     HAL3     0.900000E-01   1.00800           0
      6418 MEMB     55       CHL1     H27B     HAL3     0.900000E-01   1.00800           0
      6419 MEMB     55       CHL1     H27C     HAL3     0.900000E-01   1.00800           0
      6420 MEMB     56       OSM      N        NTL     -0.600000       14.0070           0
      6421 MEMB     56       OSM      C15      CTL5    -0.350000       12.0110           0
      6422 MEMB     56       OSM      H15A     HL       0.250000       1.00800           0
      6423 MEMB     56       OSM      H15B     HL       0.250000       1.00800           0
      6424 MEMB     56       OSM      H15C     HL       0.250000       1.00800           0
      6425 MEMB     56       OSM      C14      CTL5    -0.350000       12.0110           0
      6426 MEMB     56       OSM      H14A     HL       0.250000       1.00800           0
      6427 MEMB     56       OSM      H14B     HL       0.250000       1.00800           0
      6428 MEMB     56       OSM      H14C     HL       0.250000       1.00800           0
      6429 MEMB     56       OSM      C13      CTL5    -0.350000       12.0110           0
      6430 MEMB     56       OSM      H13A     HL       0.250000       1.00800           0
      6431 MEMB     56       OSM      H13B     HL       0.250000       1.00800           0
      6432 MEMB     56       OSM      H13C     HL       0.250000       1.00800           0
      6433 MEMB     56       OSM      C12      CTL2    -0.100000       12.0110           0
      6434 MEMB     56       OSM      H12A     HL       0.250000       1.00800           0
      6435 MEMB     56       OSM      H12B     HL       0.250000       1.00800           0
      6436 MEMB     56       OSM      C11      CTL2    -0.800000E-01   12.0110           0
      6437 MEMB     56       OSM      H11A     HAL2     0.900000E-01   1.00800           0
      6438 MEMB     56       OSM      H11B     HAL2     0.900000E-01   1.00800           0
      6439 MEMB     56       OSM      P        PL        1.50000       30.9740           0
      6440 MEMB     56       OSM      O13      O2L     -0.780000       15.9994           0
      6441 MEMB     56       OSM      O14      O2L     -0.780000       15.9994           0
      6442 MEMB     56       OSM      O11      OSLP    -0.570000       15.9994           0
      6443 MEMB     56       OSM      O12      OSLP    -0.570000       15.9994           0
      6444 MEMB     56       OSM      C1S      CTL2    -0.800000E-01   12.0110           0
      6445 MEMB     56       OSM      H1S      HAL2     0.900000E-01   1.00800           0
      6446 MEMB     56       OSM      H1T      HAL2     0.900000E-01   1.00800           0
      6447 MEMB     56       OSM      NF       NHL     -0.700000       14.0070           0
      6448 MEMB     56       OSM      HNF      H        0.350000       1.00800           0
      6449 MEMB     56       OSM      C2S      CTL1     0.300000       12.0110           0
      6450 MEMB     56       OSM      H2S      HAL1     0.500000E-01   1.00800           0
      6451 MEMB     56       OSM      C3S      CTO1     0.500000       12.0110           0
      6452 MEMB     56       OSM      H3S      HAL1    -0.110000       1.00800           0
      6453 MEMB     56       OSM      O3       OHL     -0.690000       15.9994           0
      6454 MEMB     56       OSM      HO3      HOL      0.300000       1.00800           0
      6455 MEMB     56       OSM      C4S      CEL3    -0.150000       12.0110           0
      6456 MEMB     56       OSM      H4S      HEL1     0.150000       1.00800           0
      6457 MEMB     56       OSM      C5S      CEL3    -0.150000       12.0110           0
      6458 MEMB     56       OSM      H5S      HEL1     0.150000       1.00800           0
      6459 MEMB     56       OSM      C6S      CTL2    -0.180000       12.0110           0
      6460 MEMB     56       OSM      H6S      HAL2     0.900000E-01   1.00800           0
      6461 MEMB     56       OSM      H6T      HAL2     0.900000E-01   1.00800           0
      6462 MEMB     56       OSM      C7S      CTL2    -0.180000       12.0110           0
      6463 MEMB     56       OSM      H7S      HAL2     0.900000E-01   1.00800           0
      6464 MEMB     56       OSM      H7T      HAL2     0.900000E-01   1.00800           0
      6465 MEMB     56       OSM      C8S      CTL2    -0.180000       12.0110           0
      6466 MEMB     56       OSM      H8S      HAL2     0.900000E-01   1.00800           0
      6467 MEMB     56       OSM      H8T      HAL2     0.900000E-01   1.00800           0
      6468 MEMB     56       OSM      C9S      CTL2    -0.180000       12.0110           0
      6469 MEMB     56       OSM      H9S      HAL2     0.900000E-01   1.00800           0
      6470 MEMB     56       OSM      H9T      HAL2     0.900000E-01   1.00800           0
      6471 MEMB     56       OSM      C10S     CTL2    -0.180000       12.0110           0
      6472 MEMB     56       OSM      H10S     HAL2     0.900000E-01   1.00800           0
      6473 MEMB     56       OSM      H10T     HAL2     0.900000E-01   1.00800           0
      6474 MEMB     56       OSM      C11S     CTL2    -0.180000       12.0110           0
      6475 MEMB     56       OSM      H11S     HAL2     0.900000E-01   1.00800           0
      6476 MEMB     56       OSM      H11T     HAL2     0.900000E-01   1.00800           0
      6477 MEMB     56       OSM      C12S     CTL2    -0.180000       12.0110           0
      6478 MEMB     56       OSM      H12S     HAL2     0.900000E-01   1.00800           0
      6479 MEMB     56       OSM      H12T     HAL2     0.900000E-01   1.00800           0
      6480 MEMB     56       OSM      C13S     CTL2    -0.180000       12.0110           0
      6481 MEMB     56       OSM      H13S     HAL2     0.900000E-01   1.00800           0
      6482 MEMB     56       OSM      H13T     HAL2     0.900000E-01   1.00800           0
      6483 MEMB     56       OSM      C14S     CTL2    -0.180000       12.0110           0
      6484 MEMB     56       OSM      H14S     HAL2     0.900000E-01   1.00800           0
      6485 MEMB     56       OSM      H14T     HAL2     0.900000E-01   1.00800           0
      6486 MEMB     56       OSM      C15S     CTL2    -0.180000       12.0110           0
      6487 MEMB     56       OSM      H15S     HAL2     0.900000E-01   1.00800           0
      6488 MEMB     56       OSM      H15T     HAL2     0.900000E-01   1.00800           0
      6489 MEMB     56       OSM      C16S     CTL2    -0.180000       12.0110           0
      6490 MEMB     56       OSM      H16S     HAL2     0.900000E-01   1.00800           0
      6491 MEMB     56       OSM      H16T     HAL2     0.900000E-01   1.00800           0
      6492 MEMB     56       OSM      C17S     CTL2    -0.180000       12.0110           0
      6493 MEMB     56       OSM      H17S     HAL2     0.900000E-01   1.00800           0
      6494 MEMB     56       OSM      H17T     HAL2     0.900000E-01   1.00800           0
      6495 MEMB     56       OSM      C18S     CTL3    -0.270000       12.0110           0
      6496 MEMB     56       OSM      H18S     HAL3     0.900000E-01   1.00800           0
      6497 MEMB     56       OSM      H18T     HAL3     0.900000E-01   1.00800           0
      6498 MEMB     56       OSM      H18U     HAL3     0.900000E-01   1.00800           0
      6499 MEMB     56       OSM      C1F      C        0.550000       12.0110           0
      6500 MEMB     56       OSM      OF       O       -0.600000       15.9994           0
      6501 MEMB     56       OSM      C2F      CTL2    -0.700000E-01   12.0110           0
      6502 MEMB     56       OSM      H2F      HAL2     0.600000E-01   1.00800           0
      6503 MEMB     56       OSM      H2G      HAL2     0.600000E-01   1.00800           0
      6504 MEMB     56       OSM      C3F      CTL2    -0.180000       12.0110           0
      6505 MEMB     56       OSM      H3F      HAL2     0.900000E-01   1.00800           0
      6506 MEMB     56       OSM      H3G      HAL2     0.900000E-01   1.00800           0
      6507 MEMB     56       OSM      C4F      CTL2    -0.180000       12.0110           0
      6508 MEMB     56       OSM      H4F      HAL2     0.900000E-01   1.00800           0
      6509 MEMB     56       OSM      H4G      HAL2     0.900000E-01   1.00800           0
      6510 MEMB     56       OSM      C5F      CTL2    -0.180000       12.0110           0
      6511 MEMB     56       OSM      H5F      HAL2     0.900000E-01   1.00800           0
      6512 MEMB     56       OSM      H5G      HAL2     0.900000E-01   1.00800           0
      6513 MEMB     56       OSM      C6F      CTL2    -0.180000       12.0110           0
      6514 MEMB     56       OSM      H6F      HAL2     0.900000E-01   1.00800           0
      6515 MEMB     56       OSM      H6G      HAL2     0.900000E-01   1.00800           0
      6516 MEMB     56       OSM      C7F      CTL2    -0.180000       12.0110           0
      6517 MEMB     56       OSM      H7F      HAL2     0.900000E-01   1.00800           0
      6518 MEMB     56       OSM      H7G      HAL2     0.900000E-01   1.00800           0
      6519 MEMB     56       OSM      C8F      CTL2    -0.180000       12.0110           0
      6520 MEMB     56       OSM      H8F      HAL2     0.900000E-01   1.00800           0
      6521 MEMB     56       OSM      H8G      HAL2     0.900000E-01   1.00800           0
      6522 MEMB     56       OSM      C9F      CEL1    -0.150000       12.0110           0
      6523 MEMB     56       OSM      H9F      HEL1     0.150000       1.00800           0
      6524 MEMB     56       OSM      C10F     CEL1    -0.150000       12.0110           0
      6525 MEMB     56       OSM      H10F     HEL1     0.150000       1.00800           0
      6526 MEMB     56       OSM      C11F     CTL2    -0.180000       12.0110           0
      6527 MEMB     56       OSM      H11F     HAL2     0.900000E-01   1.00800           0
      6528 MEMB     56       OSM      H11G     HAL2     0.900000E-01   1.00800           0
      6529 MEMB     56       OSM      C12F     CTL2    -0.180000       12.0110           0
      6530 MEMB     56       OSM      H12F     HAL2     0.900000E-01   1.00800           0
      6531 MEMB     56       OSM      H12G     HAL2     0.900000E-01   1.00800           0
      6532 MEMB     56       OSM      C13F     CTL2    -0.180000       12.0110           0
      6533 MEMB     56       OSM      H13F     HAL2     0.900000E-01   1.00800           0
      6534 MEMB     56       OSM      H13G     HAL2     0.900000E-01   1.00800           0
      6535 MEMB     56       OSM      C14F     CTL2    -0.180000       12.0110           0
      6536 MEMB     56       OSM      H14F     HAL2     0.900000E-01   1.00800           0
      6537 MEMB     56       OSM      H14G     HAL2     0.900000E-01   1.00800           0
      6538 MEMB     56       OSM      C15F     CTL2    -0.180000       12.0110           0
      6539 MEMB     56       OSM      H15F     HAL2     0.900000E-01   1.00800           0
      6540 MEMB     56       OSM      H15G     HAL2     0.900000E-01   1.00800           0
      6541 MEMB     56       OSM      C16F     CTL2    -0.180000       12.0110           0
      6542 MEMB     56       OSM      H16F     HAL2     0.900000E-01   1.00800           0
      6543 MEMB     56       OSM      H16G     HAL2     0.900000E-01   1.00800           0
      6544 MEMB     56       OSM      C17F     CTL2    -0.180000       12.0110           0
      6545 MEMB     56       OSM      H17F     HAL2     0.900000E-01   1.00800           0
      6546 MEMB     56       OSM      H17G     HAL2     0.900000E-01   1.00800           0
      6547 MEMB     56       OSM      C18F     CTL3    -0.270000       12.0110           0
      6548 MEMB     56       OSM      H18F     HAL3     0.900000E-01   1.00800           0
      6549 MEMB     56       OSM      H18G     HAL3     0.900000E-01   1.00800           0
      6550 MEMB     56       OSM      H18H     HAL3     0.900000E-01   1.00800           0
      6551 MEMB     57       SAPC     N        NTL     -0.600000       14.0070           0
      6552 MEMB     57       SAPC     C12      CTL2    -0.100000       12.0110           0
      6553 MEMB     57       SAPC     H12A     HL       0.250000       1.00800           0
      6554 MEMB     57       SAPC     H12B     HL       0.250000       1.00800           0
      6555 MEMB     57       SAPC     C13      CTL5    -0.350000       12.0110           0
      6556 MEMB     57       SAPC     H13A     HL       0.250000       1.00800           0
      6557 MEMB     57       SAPC     H13B     HL       0.250000       1.00800           0
      6558 MEMB     57       SAPC     H13C     HL       0.250000       1.00800           0
      6559 MEMB     57       SAPC     C14      CTL5    -0.350000       12.0110           0
      6560 MEMB     57       SAPC     H14A     HL       0.250000       1.00800           0
      6561 MEMB     57       SAPC     H14B     HL       0.250000       1.00800           0
      6562 MEMB     57       SAPC     H14C     HL       0.250000       1.00800           0
      6563 MEMB     57       SAPC     C15      CTL5    -0.350000       12.0110           0
      6564 MEMB     57       SAPC     H15A     HL       0.250000       1.00800           0
      6565 MEMB     57       SAPC     H15B     HL       0.250000       1.00800           0
      6566 MEMB     57       SAPC     H15C     HL       0.250000       1.00800           0
      6567 MEMB     57       SAPC     C11      CTL2    -0.800000E-01   12.0110           0
      6568 MEMB     57       SAPC     H11A     HAL2     0.900000E-01   1.00800           0
      6569 MEMB     57       SAPC     H11B     HAL2     0.900000E-01   1.00800           0
      6570 MEMB     57       SAPC     P        PL        1.50000       30.9740           0
      6571 MEMB     57       SAPC     O13      O2L     -0.780000       15.9994           0
      6572 MEMB     57       SAPC     O14      O2L     -0.780000       15.9994           0
      6573 MEMB     57       SAPC     O12      OSLP    -0.570000       15.9994           0
      6574 MEMB     57       SAPC     O11      OSLP    -0.570000       15.9994           0
      6575 MEMB     57       SAPC     C1       CTL2    -0.800000E-01   12.0110           0
      6576 MEMB     57       SAPC     HA       HAL2     0.900000E-01   1.00800           0
      6577 MEMB     57       SAPC     HB       HAL2     0.900000E-01   1.00800           0
      6578 MEMB     57       SAPC     C2       CTL1     0.170000       12.0110           0
      6579 MEMB     57       SAPC     HS       HAL1     0.900000E-01   1.00800           0
      6580 MEMB     57       SAPC     O21      OSL     -0.490000       15.9994           0
      6581 MEMB     57       SAPC     C21      CL       0.900000       12.0110           0
      6582 MEMB     57       SAPC     O22      OBL     -0.630000       15.9994           0
      6583 MEMB     57       SAPC     C22      CTL2    -0.220000       12.0110           0
      6584 MEMB     57       SAPC     H2R      HAL2     0.900000E-01   1.00800           0
      6585 MEMB     57       SAPC     H2S      HAL2     0.900000E-01   1.00800           0
      6586 MEMB     57       SAPC     C3       CTL2     0.800000E-01   12.0110           0
      6587 MEMB     57       SAPC     HX       HAL2     0.900000E-01   1.00800           0
      6588 MEMB     57       SAPC     HY       HAL2     0.900000E-01   1.00800           0
      6589 MEMB     57       SAPC     O31      OSL     -0.490000       15.9994           0
      6590 MEMB     57       SAPC     C31      CL       0.900000       12.0110           0
      6591 MEMB     57       SAPC     O32      OBL     -0.630000       15.9994           0
      6592 MEMB     57       SAPC     C32      CTL2    -0.220000       12.0110           0
      6593 MEMB     57       SAPC     H2X      HAL2     0.900000E-01   1.00800           0
      6594 MEMB     57       SAPC     H2Y      HAL2     0.900000E-01   1.00800           0
      6595 MEMB     57       SAPC     C23      CTL2    -0.180000       12.0110           0
      6596 MEMB     57       SAPC     H3R      HAL2     0.900000E-01   1.00800           0
      6597 MEMB     57       SAPC     H3S      HAL2     0.900000E-01   1.00800           0
      6598 MEMB     57       SAPC     C24      CTL2    -0.180000       12.0110           0
      6599 MEMB     57       SAPC     H4R      HAL2     0.900000E-01   1.00800           0
      6600 MEMB     57       SAPC     H4S      HAL2     0.900000E-01   1.00800           0
      6601 MEMB     57       SAPC     C25      CEL1    -0.150000       12.0110           0
      6602 MEMB     57       SAPC     H5R      HEL1     0.150000       1.00800           0
      6603 MEMB     57       SAPC     C26      CEL1    -0.150000       12.0110           0
      6604 MEMB     57       SAPC     H6R      HEL1     0.150000       1.00800           0
      6605 MEMB     57       SAPC     C27      CTL2    -0.180000       12.0110           0
      6606 MEMB     57       SAPC     H7R      HAL2     0.900000E-01   1.00800           0
      6607 MEMB     57       SAPC     H7S      HAL2     0.900000E-01   1.00800           0
      6608 MEMB     57       SAPC     C28      CEL1    -0.150000       12.0110           0
      6609 MEMB     57       SAPC     H8R      HEL1     0.150000       1.00800           0
      6610 MEMB     57       SAPC     C29      CEL1    -0.150000       12.0110           0
      6611 MEMB     57       SAPC     H9R      HEL1     0.150000       1.00800           0
      6612 MEMB     57       SAPC     C210     CTL2    -0.180000       12.0110           0
      6613 MEMB     57       SAPC     H10R     HAL2     0.900000E-01   1.00800           0
      6614 MEMB     57       SAPC     H10S     HAL2     0.900000E-01   1.00800           0
      6615 MEMB     57       SAPC     C211     CEL1    -0.150000       12.0110           0
      6616 MEMB     57       SAPC     H11R     HEL1     0.150000       1.00800           0
      6617 MEMB     57       SAPC     C212     CEL1    -0.150000       12.0110           0
      6618 MEMB     57       SAPC     H12R     HEL1     0.150000       1.00800           0
      6619 MEMB     57       SAPC     C213     CTL2    -0.180000       12.0110           0
      6620 MEMB     57       SAPC     H13R     HAL2     0.900000E-01   1.00800           0
      6621 MEMB     57       SAPC     H13S     HAL2     0.900000E-01   1.00800           0
      6622 MEMB     57       SAPC     C214     CEL1    -0.150000       12.0110           0
      6623 MEMB     57       SAPC     H14R     HEL1     0.150000       1.00800           0
      6624 MEMB     57       SAPC     C215     CEL1    -0.150000       12.0110           0
      6625 MEMB     57       SAPC     H15R     HEL1     0.150000       1.00800           0
      6626 MEMB     57       SAPC     C216     CTL2    -0.180000       12.0110           0
      6627 MEMB     57       SAPC     H16R     HAL2     0.900000E-01   1.00800           0
      6628 MEMB     57       SAPC     H16S     HAL2     0.900000E-01   1.00800           0
      6629 MEMB     57       SAPC     C217     CTL2    -0.180000       12.0110           0
      6630 MEMB     57       SAPC     H17R     HAL2     0.900000E-01   1.00800           0
      6631 MEMB     57       SAPC     H17S     HAL2     0.900000E-01   1.00800           0
      6632 MEMB     57       SAPC     C218     CTL2    -0.270000       12.0110           0
      6633 MEMB     57       SAPC     H18R     HAL2     0.900000E-01   1.00800           0
      6634 MEMB     57       SAPC     H18S     HAL2     0.900000E-01   1.00800           0
      6635 MEMB     57       SAPC     C219     CTL2    -0.180000       12.0110           0
      6636 MEMB     57       SAPC     H19R     HAL2     0.900000E-01   1.00800           0
      6637 MEMB     57       SAPC     H19S     HAL2     0.900000E-01   1.00800           0
      6638 MEMB     57       SAPC     C220     CTL3    -0.180000       12.0110           0
      6639 MEMB     57       SAPC     H20R     HAL3     0.900000E-01   1.00800           0
      6640 MEMB     57       SAPC     H20S     HAL3     0.900000E-01   1.00800           0
      6641 MEMB     57       SAPC     H20T     HAL3     0.900000E-01   1.00800           0
      6642 MEMB     57       SAPC     C33      CTL2    -0.180000       12.0110           0
      6643 MEMB     57       SAPC     H3X      HAL2     0.900000E-01   1.00800           0
      6644 MEMB     57       SAPC     H3Y      HAL2     0.900000E-01   1.00800           0
      6645 MEMB     57       SAPC     C34      CTL2    -0.180000       12.0110           0
      6646 MEMB     57       SAPC     H4X      HAL2     0.900000E-01   1.00800           0
      6647 MEMB     57       SAPC     H4Y      HAL2     0.900000E-01   1.00800           0
      6648 MEMB     57       SAPC     C35      CTL2    -0.180000       12.0110           0
      6649 MEMB     57       SAPC     H5X      HAL2     0.900000E-01   1.00800           0
      6650 MEMB     57       SAPC     H5Y      HAL2     0.900000E-01   1.00800           0
      6651 MEMB     57       SAPC     C36      CTL2    -0.180000       12.0110           0
      6652 MEMB     57       SAPC     H6X      HAL2     0.900000E-01   1.00800           0
      6653 MEMB     57       SAPC     H6Y      HAL2     0.900000E-01   1.00800           0
      6654 MEMB     57       SAPC     C37      CTL2    -0.180000       12.0110           0
      6655 MEMB     57       SAPC     H7X      HAL2     0.900000E-01   1.00800           0
      6656 MEMB     57       SAPC     H7Y      HAL2     0.900000E-01   1.00800           0
      6657 MEMB     57       SAPC     C38      CTL2    -0.180000       12.0110           0
      6658 MEMB     57       SAPC     H8X      HAL2     0.900000E-01   1.00800           0
      6659 MEMB     57       SAPC     H8Y      HAL2     0.900000E-01   1.00800           0
      6660 MEMB     57       SAPC     C39      CTL2    -0.180000       12.0110           0
      6661 MEMB     57       SAPC     H9X      HAL2     0.900000E-01   1.00800           0
      6662 MEMB     57       SAPC     H9Y      HAL2     0.900000E-01   1.00800           0
      6663 MEMB     57       SAPC     C310     CTL2    -0.180000       12.0110           0
      6664 MEMB     57       SAPC     H10X     HAL2     0.900000E-01   1.00800           0
      6665 MEMB     57       SAPC     H10Y     HAL2     0.900000E-01   1.00800           0
      6666 MEMB     57       SAPC     C311     CTL2    -0.180000       12.0110           0
      6667 MEMB     57       SAPC     H11X     HAL2     0.900000E-01   1.00800           0
      6668 MEMB     57       SAPC     H11Y     HAL2     0.900000E-01   1.00800           0
      6669 MEMB     57       SAPC     C312     CTL2    -0.180000       12.0110           0
      6670 MEMB     57       SAPC     H12X     HAL2     0.900000E-01   1.00800           0
      6671 MEMB     57       SAPC     H12Y     HAL2     0.900000E-01   1.00800           0
      6672 MEMB     57       SAPC     C313     CTL2    -0.180000       12.0110           0
      6673 MEMB     57       SAPC     H13X     HAL2     0.900000E-01   1.00800           0
      6674 MEMB     57       SAPC     H13Y     HAL2     0.900000E-01   1.00800           0
      6675 MEMB     57       SAPC     C314     CTL2    -0.180000       12.0110           0
      6676 MEMB     57       SAPC     H14X     HAL2     0.900000E-01   1.00800           0
      6677 MEMB     57       SAPC     H14Y     HAL2     0.900000E-01   1.00800           0
      6678 MEMB     57       SAPC     C315     CTL2    -0.180000       12.0110           0
      6679 MEMB     57       SAPC     H15X     HAL2     0.900000E-01   1.00800           0
      6680 MEMB     57       SAPC     H15Y     HAL2     0.900000E-01   1.00800           0
      6681 MEMB     57       SAPC     C316     CTL2    -0.180000       12.0110           0
      6682 MEMB     57       SAPC     H16X     HAL2     0.900000E-01   1.00800           0
      6683 MEMB     57       SAPC     H16Y     HAL2     0.900000E-01   1.00800           0
      6684 MEMB     57       SAPC     C317     CTL2    -0.180000       12.0110           0
      6685 MEMB     57       SAPC     H17X     HAL2     0.900000E-01   1.00800           0
      6686 MEMB     57       SAPC     H17Y     HAL2     0.900000E-01   1.00800           0
      6687 MEMB     57       SAPC     C318     CTL3    -0.270000       12.0110           0
      6688 MEMB     57       SAPC     H18X     HAL3     0.900000E-01   1.00800           0
      6689 MEMB     57       SAPC     H18Y     HAL3     0.900000E-01   1.00800           0
      6690 MEMB     57       SAPC     H18Z     HAL3     0.900000E-01   1.00800           0
      6691 MEMB     58       CHL1     C3       CRL1     0.140000       12.0110           0
      6692 MEMB     58       CHL1     H3       HGA1     0.900000E-01   1.00800           0
      6693 MEMB     58       CHL1     O3       OHL     -0.660000       15.9994           0
      6694 MEMB     58       CHL1     H3'      HOL      0.430000       1.00800           0
      6695 MEMB     58       CHL1     C4       CRL2    -0.180000       12.0110           0
      6696 MEMB     58       CHL1     H4A      HGA2     0.900000E-01   1.00800           0
      6697 MEMB     58       CHL1     H4B      HGA2     0.900000E-01   1.00800           0
      6698 MEMB     58       CHL1     C5       CEL1      0.00000       12.0110           0
      6699 MEMB     58       CHL1     C6       CEL1    -0.150000       12.0110           0
      6700 MEMB     58       CHL1     H6       HEL1     0.150000       1.00800           0
      6701 MEMB     58       CHL1     C7       CRL2    -0.180000       12.0110           0
      6702 MEMB     58       CHL1     H7A      HGA2     0.900000E-01   1.00800           0
      6703 MEMB     58       CHL1     H7B      HGA2     0.900000E-01   1.00800           0
      6704 MEMB     58       CHL1     C8       CRL1    -0.900000E-01   12.0110           0
      6705 MEMB     58       CHL1     H8       HGA1     0.900000E-01   1.00800           0
      6706 MEMB     58       CHL1     C14      CRL1    -0.900000E-01   12.0110           0
      6707 MEMB     58       CHL1     H14      HGA1     0.900000E-01   1.00800           0
      6708 MEMB     58       CHL1     C15      CRL2    -0.180000       12.0110           0
      6709 MEMB     58       CHL1     H15A     HGA2     0.900000E-01   1.00800           0
      6710 MEMB     58       CHL1     H15B     HGA2     0.900000E-01   1.00800           0
      6711 MEMB     58       CHL1     C16      CRL2    -0.180000       12.0110           0
      6712 MEMB     58       CHL1     H16A     HGA2     0.900000E-01   1.00800           0
      6713 MEMB     58       CHL1     H16B     HGA2     0.900000E-01   1.00800           0
      6714 MEMB     58       CHL1     C17      CRL1    -0.900000E-01   12.0110           0
      6715 MEMB     58       CHL1     H17      HGA1     0.900000E-01   1.00800           0
      6716 MEMB     58       CHL1     C13      CRL1      0.00000       12.0110           0
      6717 MEMB     58       CHL1     C18      CTL3    -0.270000       12.0110           0
      6718 MEMB     58       CHL1     H18A     HAL3     0.900000E-01   1.00800           0
      6719 MEMB     58       CHL1     H18B     HAL3     0.900000E-01   1.00800           0
      6720 MEMB     58       CHL1     H18C     HAL3     0.900000E-01   1.00800           0
      6721 MEMB     58       CHL1     C12      CRL2    -0.180000       12.0110           0
      6722 MEMB     58       CHL1     H12A     HGA2     0.900000E-01   1.00800           0
      6723 MEMB     58       CHL1     H12B     HGA2     0.900000E-01   1.00800           0
      6724 MEMB     58       CHL1     C11      CRL2    -0.180000       12.0110           0
      6725 MEMB     58       CHL1     H11A     HGA2     0.900000E-01   1.00800           0
      6726 MEMB     58       CHL1     H11B     HGA2     0.900000E-01   1.00800           0
      6727 MEMB     58       CHL1     C9       CRL1    -0.900000E-01   12.0110           0
      6728 MEMB     58       CHL1     H9       HGA1     0.900000E-01   1.00800           0
      6729 MEMB     58       CHL1     C10      CRL1      0.00000       12.0110           0
      6730 MEMB     58       CHL1     C19      CTL3    -0.270000       12.0110           0
      6731 MEMB     58       CHL1     H19A     HAL3     0.900000E-01   1.00800           0
      6732 MEMB     58       CHL1     H19B     HAL3     0.900000E-01   1.00800           0
      6733 MEMB     58       CHL1     H19C     HAL3     0.900000E-01   1.00800           0
      6734 MEMB     58       CHL1     C1       CRL2    -0.180000       12.0110           0
      6735 MEMB     58       CHL1     H1A      HGA2     0.900000E-01   1.00800           0
      6736 MEMB     58       CHL1     H1B      HGA2     0.900000E-01   1.00800           0
      6737 MEMB     58       CHL1     C2       CRL2    -0.180000       12.0110           0
      6738 MEMB     58       CHL1     H2A      HGA2     0.900000E-01   1.00800           0
      6739 MEMB     58       CHL1     H2B      HGA2     0.900000E-01   1.00800           0
      6740 MEMB     58       CHL1     C20      CTL1    -0.900000E-01   12.0110           0
      6741 MEMB     58       CHL1     H20      HAL1     0.900000E-01   1.00800           0
      6742 MEMB     58       CHL1     C21      CTL3    -0.270000       12.0110           0
      6743 MEMB     58       CHL1     H21A     HAL3     0.900000E-01   1.00800           0
      6744 MEMB     58       CHL1     H21B     HAL3     0.900000E-01   1.00800           0
      6745 MEMB     58       CHL1     H21C     HAL3     0.900000E-01   1.00800           0
      6746 MEMB     58       CHL1     C22      CTL2    -0.180000       12.0110           0
      6747 MEMB     58       CHL1     H22A     HAL2     0.900000E-01   1.00800           0
      6748 MEMB     58       CHL1     H22B     HAL2     0.900000E-01   1.00800           0
      6749 MEMB     58       CHL1     C23      CTL2    -0.180000       12.0110           0
      6750 MEMB     58       CHL1     H23A     HAL2     0.900000E-01   1.00800           0
      6751 MEMB     58       CHL1     H23B     HAL2     0.900000E-01   1.00800           0
      6752 MEMB     58       CHL1     C24      CTL2    -0.180000       12.0110           0
      6753 MEMB     58       CHL1     H24A     HAL2     0.900000E-01   1.00800           0
      6754 MEMB     58       CHL1     H24B     HAL2     0.900000E-01   1.00800           0
      6755 MEMB     58       CHL1     C25      CTL1    -0.900000E-01   12.0110           0
      6756 MEMB     58       CHL1     H25      HAL1     0.900000E-01   1.00800           0
      6757 MEMB     58       CHL1     C26      CTL3    -0.270000       12.0110           0
      6758 MEMB     58       CHL1     H26A     HAL3     0.900000E-01   1.00800           0
      6759 MEMB     58       CHL1     H26B     HAL3     0.900000E-01   1.00800           0
      6760 MEMB     58       CHL1     H26C     HAL3     0.900000E-01   1.00800           0
      6761 MEMB     58       CHL1     C27      CTL3    -0.270000       12.0110           0
      6762 MEMB     58       CHL1     H27A     HAL3     0.900000E-01   1.00800           0
      6763 MEMB     58       CHL1     H27B     HAL3     0.900000E-01   1.00800           0
      6764 MEMB     58       CHL1     H27C     HAL3     0.900000E-01   1.00800           0
      6765 MEMB     59       CHL1     C3       CRL1     0.140000       12.0110           0
      6766 MEMB     59       CHL1     H3       HGA1     0.900000E-01   1.00800           0
      6767 MEMB     59       CHL1     O3       OHL     -0.660000       15.9994           0
      6768 MEMB     59       CHL1     H3'      HOL      0.430000       1.00800           0
      6769 MEMB     59       CHL1     C4       CRL2    -0.180000       12.0110           0
      6770 MEMB     59       CHL1     H4A      HGA2     0.900000E-01   1.00800           0
      6771 MEMB     59       CHL1     H4B      HGA2     0.900000E-01   1.00800           0
      6772 MEMB     59       CHL1     C5       CEL1      0.00000       12.0110           0
      6773 MEMB     59       CHL1     C6       CEL1    -0.150000       12.0110           0
      6774 MEMB     59       CHL1     H6       HEL1     0.150000       1.00800           0
      6775 MEMB     59       CHL1     C7       CRL2    -0.180000       12.0110           0
      6776 MEMB     59       CHL1     H7A      HGA2     0.900000E-01   1.00800           0
      6777 MEMB     59       CHL1     H7B      HGA2     0.900000E-01   1.00800           0
      6778 MEMB     59       CHL1     C8       CRL1    -0.900000E-01   12.0110           0
      6779 MEMB     59       CHL1     H8       HGA1     0.900000E-01   1.00800           0
      6780 MEMB     59       CHL1     C14      CRL1    -0.900000E-01   12.0110           0
      6781 MEMB     59       CHL1     H14      HGA1     0.900000E-01   1.00800           0
      6782 MEMB     59       CHL1     C15      CRL2    -0.180000       12.0110           0
      6783 MEMB     59       CHL1     H15A     HGA2     0.900000E-01   1.00800           0
      6784 MEMB     59       CHL1     H15B     HGA2     0.900000E-01   1.00800           0
      6785 MEMB     59       CHL1     C16      CRL2    -0.180000       12.0110           0
      6786 MEMB     59       CHL1     H16A     HGA2     0.900000E-01   1.00800           0
      6787 MEMB     59       CHL1     H16B     HGA2     0.900000E-01   1.00800           0
      6788 MEMB     59       CHL1     C17      CRL1    -0.900000E-01   12.0110           0
      6789 MEMB     59       CHL1     H17      HGA1     0.900000E-01   1.00800           0
      6790 MEMB     59       CHL1     C13      CRL1      0.00000       12.0110           0
      6791 MEMB     59       CHL1     C18      CTL3    -0.270000       12.0110           0
      6792 MEMB     59       CHL1     H18A     HAL3     0.900000E-01   1.00800           0
      6793 MEMB     59       CHL1     H18B     HAL3     0.900000E-01   1.00800           0
      6794 MEMB     59       CHL1     H18C     HAL3     0.900000E-01   1.00800           0
      6795 MEMB     59       CHL1     C12      CRL2    -0.180000       12.0110           0
      6796 MEMB     59       CHL1     H12A     HGA2     0.900000E-01   1.00800           0
      6797 MEMB     59       CHL1     H12B     HGA2     0.900000E-01   1.00800           0
      6798 MEMB     59       CHL1     C11      CRL2    -0.180000       12.0110           0
      6799 MEMB     59       CHL1     H11A     HGA2     0.900000E-01   1.00800           0
      6800 MEMB     59       CHL1     H11B     HGA2     0.900000E-01   1.00800           0
      6801 MEMB     59       CHL1     C9       CRL1    -0.900000E-01   12.0110           0
      6802 MEMB     59       CHL1     H9       HGA1     0.900000E-01   1.00800           0
      6803 MEMB     59       CHL1     C10      CRL1      0.00000       12.0110           0
      6804 MEMB     59       CHL1     C19      CTL3    -0.270000       12.0110           0
      6805 MEMB     59       CHL1     H19A     HAL3     0.900000E-01   1.00800           0
      6806 MEMB     59       CHL1     H19B     HAL3     0.900000E-01   1.00800           0
      6807 MEMB     59       CHL1     H19C     HAL3     0.900000E-01   1.00800           0
      6808 MEMB     59       CHL1     C1       CRL2    -0.180000       12.0110           0
      6809 MEMB     59       CHL1     H1A      HGA2     0.900000E-01   1.00800           0
      6810 MEMB     59       CHL1     H1B      HGA2     0.900000E-01   1.00800           0
      6811 MEMB     59       CHL1     C2       CRL2    -0.180000       12.0110           0
      6812 MEMB     59       CHL1     H2A      HGA2     0.900000E-01   1.00800           0
      6813 MEMB     59       CHL1     H2B      HGA2     0.900000E-01   1.00800           0
      6814 MEMB     59       CHL1     C20      CTL1    -0.900000E-01   12.0110           0
      6815 MEMB     59       CHL1     H20      HAL1     0.900000E-01   1.00800           0
      6816 MEMB     59       CHL1     C21      CTL3    -0.270000       12.0110           0
      6817 MEMB     59       CHL1     H21A     HAL3     0.900000E-01   1.00800           0
      6818 MEMB     59       CHL1     H21B     HAL3     0.900000E-01   1.00800           0
      6819 MEMB     59       CHL1     H21C     HAL3     0.900000E-01   1.00800           0
      6820 MEMB     59       CHL1     C22      CTL2    -0.180000       12.0110           0
      6821 MEMB     59       CHL1     H22A     HAL2     0.900000E-01   1.00800           0
      6822 MEMB     59       CHL1     H22B     HAL2     0.900000E-01   1.00800           0
      6823 MEMB     59       CHL1     C23      CTL2    -0.180000       12.0110           0
      6824 MEMB     59       CHL1     H23A     HAL2     0.900000E-01   1.00800           0
      6825 MEMB     59       CHL1     H23B     HAL2     0.900000E-01   1.00800           0
      6826 MEMB     59       CHL1     C24      CTL2    -0.180000       12.0110           0
      6827 MEMB     59       CHL1     H24A     HAL2     0.900000E-01   1.00800           0
      6828 MEMB     59       CHL1     H24B     HAL2     0.900000E-01   1.00800           0
      6829 MEMB     59       CHL1     C25      CTL1    -0.900000E-01   12.0110           0
      6830 MEMB     59       CHL1     H25      HAL1     0.900000E-01   1.00800           0
      6831 MEMB     59       CHL1     C26      CTL3    -0.270000       12.0110           0
      6832 MEMB     59       CHL1     H26A     HAL3     0.900000E-01   1.00800           0
      6833 MEMB     59       CHL1     H26B     HAL3     0.900000E-01   1.00800           0
      6834 MEMB     59       CHL1     H26C     HAL3     0.900000E-01   1.00800           0
      6835 MEMB     59       CHL1     C27      CTL3    -0.270000       12.0110           0
      6836 MEMB     59       CHL1     H27A     HAL3     0.900000E-01   1.00800           0
      6837 MEMB     59       CHL1     H27B     HAL3     0.900000E-01   1.00800           0
      6838 MEMB     59       CHL1     H27C     HAL3     0.900000E-01   1.00800           0
      6839 MEMB     60       CHL1     C3       CRL1     0.140000       12.0110           0
      6840 MEMB     60       CHL1     H3       HGA1     0.900000E-01   1.00800           0
      6841 MEMB     60       CHL1     O3       OHL     -0.660000       15.9994           0
      6842 MEMB     60       CHL1     H3'      HOL      0.430000       1.00800           0
      6843 MEMB     60       CHL1     C4       CRL2    -0.180000       12.0110           0
      6844 MEMB     60       CHL1     H4A      HGA2     0.900000E-01   1.00800           0
      6845 MEMB     60       CHL1     H4B      HGA2     0.900000E-01   1.00800           0
      6846 MEMB     60       CHL1     C5       CEL1      0.00000       12.0110           0
      6847 MEMB     60       CHL1     C6       CEL1    -0.150000       12.0110           0
      6848 MEMB     60       CHL1     H6       HEL1     0.150000       1.00800           0
      6849 MEMB     60       CHL1     C7       CRL2    -0.180000       12.0110           0
      6850 MEMB     60       CHL1     H7A      HGA2     0.900000E-01   1.00800           0
      6851 MEMB     60       CHL1     H7B      HGA2     0.900000E-01   1.00800           0
      6852 MEMB     60       CHL1     C8       CRL1    -0.900000E-01   12.0110           0
      6853 MEMB     60       CHL1     H8       HGA1     0.900000E-01   1.00800           0
      6854 MEMB     60       CHL1     C14      CRL1    -0.900000E-01   12.0110           0
      6855 MEMB     60       CHL1     H14      HGA1     0.900000E-01   1.00800           0
      6856 MEMB     60       CHL1     C15      CRL2    -0.180000       12.0110           0
      6857 MEMB     60       CHL1     H15A     HGA2     0.900000E-01   1.00800           0
      6858 MEMB     60       CHL1     H15B     HGA2     0.900000E-01   1.00800           0
      6859 MEMB     60       CHL1     C16      CRL2    -0.180000       12.0110           0
      6860 MEMB     60       CHL1     H16A     HGA2     0.900000E-01   1.00800           0
      6861 MEMB     60       CHL1     H16B     HGA2     0.900000E-01   1.00800           0
      6862 MEMB     60       CHL1     C17      CRL1    -0.900000E-01   12.0110           0
      6863 MEMB     60       CHL1     H17      HGA1     0.900000E-01   1.00800           0
      6864 MEMB     60       CHL1     C13      CRL1      0.00000       12.0110           0
      6865 MEMB     60       CHL1     C18      CTL3    -0.270000       12.0110           0
      6866 MEMB     60       CHL1     H18A     HAL3     0.900000E-01   1.00800           0
      6867 MEMB     60       CHL1     H18B     HAL3     0.900000E-01   1.00800           0
      6868 MEMB     60       CHL1     H18C     HAL3     0.900000E-01   1.00800           0
      6869 MEMB     60       CHL1     C12      CRL2    -0.180000       12.0110           0
      6870 MEMB     60       CHL1     H12A     HGA2     0.900000E-01   1.00800           0
      6871 MEMB     60       CHL1     H12B     HGA2     0.900000E-01   1.00800           0
      6872 MEMB     60       CHL1     C11      CRL2    -0.180000       12.0110           0
      6873 MEMB     60       CHL1     H11A     HGA2     0.900000E-01   1.00800           0
      6874 MEMB     60       CHL1     H11B     HGA2     0.900000E-01   1.00800           0
      6875 MEMB     60       CHL1     C9       CRL1    -0.900000E-01   12.0110           0
      6876 MEMB     60       CHL1     H9       HGA1     0.900000E-01   1.00800           0
      6877 MEMB     60       CHL1     C10      CRL1      0.00000       12.0110           0
      6878 MEMB     60       CHL1     C19      CTL3    -0.270000       12.0110           0
      6879 MEMB     60       CHL1     H19A     HAL3     0.900000E-01   1.00800           0
      6880 MEMB     60       CHL1     H19B     HAL3     0.900000E-01   1.00800           0
      6881 MEMB     60       CHL1     H19C     HAL3     0.900000E-01   1.00800           0
      6882 MEMB     60       CHL1     C1       CRL2    -0.180000       12.0110           0
      6883 MEMB     60       CHL1     H1A      HGA2     0.900000E-01   1.00800           0
      6884 MEMB     60       CHL1     H1B      HGA2     0.900000E-01   1.00800           0
      6885 MEMB     60       CHL1     C2       CRL2    -0.180000       12.0110           0
      6886 MEMB     60       CHL1     H2A      HGA2     0.900000E-01   1.00800           0
      6887 MEMB     60       CHL1     H2B      HGA2     0.900000E-01   1.00800           0
      6888 MEMB     60       CHL1     C20      CTL1    -0.900000E-01   12.0110           0
      6889 MEMB     60       CHL1     H20      HAL1     0.900000E-01   1.00800           0
      6890 MEMB     60       CHL1     C21      CTL3    -0.270000       12.0110           0
      6891 MEMB     60       CHL1     H21A     HAL3     0.900000E-01   1.00800           0
      6892 MEMB     60       CHL1     H21B     HAL3     0.900000E-01   1.00800           0
      6893 MEMB     60       CHL1     H21C     HAL3     0.900000E-01   1.00800           0
      6894 MEMB     60       CHL1     C22      CTL2    -0.180000       12.0110           0
      6895 MEMB     60       CHL1     H22A     HAL2     0.900000E-01   1.00800           0
      6896 MEMB     60       CHL1     H22B     HAL2     0.900000E-01   1.00800           0
      6897 MEMB     60       CHL1     C23      CTL2    -0.180000       12.0110           0
      6898 MEMB     60       CHL1     H23A     HAL2     0.900000E-01   1.00800           0
      6899 MEMB     60       CHL1     H23B     HAL2     0.900000E-01   1.00800           0
      6900 MEMB     60       CHL1     C24      CTL2    -0.180000       12.0110           0
      6901 MEMB     60       CHL1     H24A     HAL2     0.900000E-01   1.00800           0
      6902 MEMB     60       CHL1     H24B     HAL2     0.900000E-01   1.00800           0
      6903 MEMB     60       CHL1     C25      CTL1    -0.900000E-01   12.0110           0
      6904 MEMB     60       CHL1     H25      HAL1     0.900000E-01   1.00800           0
      6905 MEMB     60       CHL1     C26      CTL3    -0.270000       12.0110           0
      6906 MEMB     60       CHL1     H26A     HAL3     0.900000E-01   1.00800           0
      6907 MEMB     60       CHL1     H26B     HAL3     0.900000E-01   1.00800           0
      6908 MEMB     60       CHL1     H26C     HAL3     0.900000E-01   1.00800           0
      6909 MEMB     60       CHL1     C27      CTL3    -0.270000       12.0110           0
      6910 MEMB     60       CHL1     H27A     HAL3     0.900000E-01   1.00800           0
      6911 MEMB     60       CHL1     H27B     HAL3     0.900000E-01   1.00800           0
      6912 MEMB     60       CHL1     H27C     HAL3     0.900000E-01   1.00800           0
      6913 MEMB     61       CHL1     C3       CRL1     0.140000       12.0110           0
      6914 MEMB     61       CHL1     H3       HGA1     0.900000E-01   1.00800           0
      6915 MEMB     61       CHL1     O3       OHL     -0.660000       15.9994           0
      6916 MEMB     61       CHL1     H3'      HOL      0.430000       1.00800           0
      6917 MEMB     61       CHL1     C4       CRL2    -0.180000       12.0110           0
      6918 MEMB     61       CHL1     H4A      HGA2     0.900000E-01   1.00800           0
      6919 MEMB     61       CHL1     H4B      HGA2     0.900000E-01   1.00800           0
      6920 MEMB     61       CHL1     C5       CEL1      0.00000       12.0110           0
      6921 MEMB     61       CHL1     C6       CEL1    -0.150000       12.0110           0
      6922 MEMB     61       CHL1     H6       HEL1     0.150000       1.00800           0
      6923 MEMB     61       CHL1     C7       CRL2    -0.180000       12.0110           0
      6924 MEMB     61       CHL1     H7A      HGA2     0.900000E-01   1.00800           0
      6925 MEMB     61       CHL1     H7B      HGA2     0.900000E-01   1.00800           0
      6926 MEMB     61       CHL1     C8       CRL1    -0.900000E-01   12.0110           0
      6927 MEMB     61       CHL1     H8       HGA1     0.900000E-01   1.00800           0
      6928 MEMB     61       CHL1     C14      CRL1    -0.900000E-01   12.0110           0
      6929 MEMB     61       CHL1     H14      HGA1     0.900000E-01   1.00800           0
      6930 MEMB     61       CHL1     C15      CRL2    -0.180000       12.0110           0
      6931 MEMB     61       CHL1     H15A     HGA2     0.900000E-01   1.00800           0
      6932 MEMB     61       CHL1     H15B     HGA2     0.900000E-01   1.00800           0
      6933 MEMB     61       CHL1     C16      CRL2    -0.180000       12.0110           0
      6934 MEMB     61       CHL1     H16A     HGA2     0.900000E-01   1.00800           0
      6935 MEMB     61       CHL1     H16B     HGA2     0.900000E-01   1.00800           0
      6936 MEMB     61       CHL1     C17      CRL1    -0.900000E-01   12.0110           0
      6937 MEMB     61       CHL1     H17      HGA1     0.900000E-01   1.00800           0
      6938 MEMB     61       CHL1     C13      CRL1      0.00000       12.0110           0
      6939 MEMB     61       CHL1     C18      CTL3    -0.270000       12.0110           0
      6940 MEMB     61       CHL1     H18A     HAL3     0.900000E-01   1.00800           0
      6941 MEMB     61       CHL1     H18B     HAL3     0.900000E-01   1.00800           0
      6942 MEMB     61       CHL1     H18C     HAL3     0.900000E-01   1.00800           0
      6943 MEMB     61       CHL1     C12      CRL2    -0.180000       12.0110           0
      6944 MEMB     61       CHL1     H12A     HGA2     0.900000E-01   1.00800           0
      6945 MEMB     61       CHL1     H12B     HGA2     0.900000E-01   1.00800           0
      6946 MEMB     61       CHL1     C11      CRL2    -0.180000       12.0110           0
      6947 MEMB     61       CHL1     H11A     HGA2     0.900000E-01   1.00800           0
      6948 MEMB     61       CHL1     H11B     HGA2     0.900000E-01   1.00800           0
      6949 MEMB     61       CHL1     C9       CRL1    -0.900000E-01   12.0110           0
      6950 MEMB     61       CHL1     H9       HGA1     0.900000E-01   1.00800           0
      6951 MEMB     61       CHL1     C10      CRL1      0.00000       12.0110           0
      6952 MEMB     61       CHL1     C19      CTL3    -0.270000       12.0110           0
      6953 MEMB     61       CHL1     H19A     HAL3     0.900000E-01   1.00800           0
      6954 MEMB     61       CHL1     H19B     HAL3     0.900000E-01   1.00800           0
      6955 MEMB     61       CHL1     H19C     HAL3     0.900000E-01   1.00800           0
      6956 MEMB     61       CHL1     C1       CRL2    -0.180000       12.0110           0
      6957 MEMB     61       CHL1     H1A      HGA2     0.900000E-01   1.00800           0
      6958 MEMB     61       CHL1     H1B      HGA2     0.900000E-01   1.00800           0
      6959 MEMB     61       CHL1     C2       CRL2    -0.180000       12.0110           0
      6960 MEMB     61       CHL1     H2A      HGA2     0.900000E-01   1.00800           0
      6961 MEMB     61       CHL1     H2B      HGA2     0.900000E-01   1.00800           0
      6962 MEMB     61       CHL1     C20      CTL1    -0.900000E-01   12.0110           0
      6963 MEMB     61       CHL1     H20      HAL1     0.900000E-01   1.00800           0
      6964 MEMB     61       CHL1     C21      CTL3    -0.270000       12.0110           0
      6965 MEMB     61       CHL1     H21A     HAL3     0.900000E-01   1.00800           0
      6966 MEMB     61       CHL1     H21B     HAL3     0.900000E-01   1.00800           0
      6967 MEMB     61       CHL1     H21C     HAL3     0.900000E-01   1.00800           0
      6968 MEMB     61       CHL1     C22      CTL2    -0.180000       12.0110           0
      6969 MEMB     61       CHL1     H22A     HAL2     0.900000E-01   1.00800           0
      6970 MEMB     61       CHL1     H22B     HAL2     0.900000E-01   1.00800           0
      6971 MEMB     61       CHL1     C23      CTL2    -0.180000       12.0110           0
      6972 MEMB     61       CHL1     H23A     HAL2     0.900000E-01   1.00800           0
      6973 MEMB     61       CHL1     H23B     HAL2     0.900000E-01   1.00800           0
      6974 MEMB     61       CHL1     C24      CTL2    -0.180000       12.0110           0
      6975 MEMB     61       CHL1     H24A     HAL2     0.900000E-01   1.00800           0
      6976 MEMB     61       CHL1     H24B     HAL2     0.900000E-01   1.00800           0
      6977 MEMB     61       CHL1     C25      CTL1    -0.900000E-01   12.0110           0
      6978 MEMB     61       CHL1     H25      HAL1     0.900000E-01   1.00800           0
      6979 MEMB     61       CHL1     C26      CTL3    -0.270000       12.0110           0
      6980 MEMB     61       CHL1     H26A     HAL3     0.900000E-01   1.00800           0
      6981 MEMB     61       CHL1     H26B     HAL3     0.900000E-01   1.00800           0
      6982 MEMB     61       CHL1     H26C     HAL3     0.900000E-01   1.00800           0
      6983 MEMB     61       CHL1     C27      CTL3    -0.270000       12.0110           0
      6984 MEMB     61       CHL1     H27A     HAL3     0.900000E-01   1.00800           0
      6985 MEMB     61       CHL1     H27B     HAL3     0.900000E-01   1.00800           0
      6986 MEMB     61       CHL1     H27C     HAL3     0.900000E-01   1.00800           0
      6987 MEMB     62       OSM      N        NTL     -0.600000       14.0070           0
      6988 MEMB     62       OSM      C15      CTL5    -0.350000       12.0110           0
      6989 MEMB     62       OSM      H15A     HL       0.250000       1.00800           0
      6990 MEMB     62       OSM      H15B     HL       0.250000       1.00800           0
      6991 MEMB     62       OSM      H15C     HL       0.250000       1.00800           0
      6992 MEMB     62       OSM      C14      CTL5    -0.350000       12.0110           0
      6993 MEMB     62       OSM      H14A     HL       0.250000       1.00800           0
      6994 MEMB     62       OSM      H14B     HL       0.250000       1.00800           0
      6995 MEMB     62       OSM      H14C     HL       0.250000       1.00800           0
      6996 MEMB     62       OSM      C13      CTL5    -0.350000       12.0110           0
      6997 MEMB     62       OSM      H13A     HL       0.250000       1.00800           0
      6998 MEMB     62       OSM      H13B     HL       0.250000       1.00800           0
      6999 MEMB     62       OSM      H13C     HL       0.250000       1.00800           0
      7000 MEMB     62       OSM      C12      CTL2    -0.100000       12.0110           0
      7001 MEMB     62       OSM      H12A     HL       0.250000       1.00800           0
      7002 MEMB     62       OSM      H12B     HL       0.250000       1.00800           0
      7003 MEMB     62       OSM      C11      CTL2    -0.800000E-01   12.0110           0
      7004 MEMB     62       OSM      H11A     HAL2     0.900000E-01   1.00800           0
      7005 MEMB     62       OSM      H11B     HAL2     0.900000E-01   1.00800           0
      7006 MEMB     62       OSM      P        PL        1.50000       30.9740           0
      7007 MEMB     62       OSM      O13      O2L     -0.780000       15.9994           0
      7008 MEMB     62       OSM      O14      O2L     -0.780000       15.9994           0
      7009 MEMB     62       OSM      O11      OSLP    -0.570000       15.9994           0
      7010 MEMB     62       OSM      O12      OSLP    -0.570000       15.9994           0
      7011 MEMB     62       OSM      C1S      CTL2    -0.800000E-01   12.0110           0
      7012 MEMB     62       OSM      H1S      HAL2     0.900000E-01   1.00800           0
      7013 MEMB     62       OSM      H1T      HAL2     0.900000E-01   1.00800           0
      7014 MEMB     62       OSM      NF       NHL     -0.700000       14.0070           0
      7015 MEMB     62       OSM      HNF      H        0.350000       1.00800           0
      7016 MEMB     62       OSM      C2S      CTL1     0.300000       12.0110           0
      7017 MEMB     62       OSM      H2S      HAL1     0.500000E-01   1.00800           0
      7018 MEMB     62       OSM      C3S      CTO1     0.500000       12.0110           0
      7019 MEMB     62       OSM      H3S      HAL1    -0.110000       1.00800           0
      7020 MEMB     62       OSM      O3       OHL     -0.690000       15.9994           0
      7021 MEMB     62       OSM      HO3      HOL      0.300000       1.00800           0
      7022 MEMB     62       OSM      C4S      CEL3    -0.150000       12.0110           0
      7023 MEMB     62       OSM      H4S      HEL1     0.150000       1.00800           0
      7024 MEMB     62       OSM      C5S      CEL3    -0.150000       12.0110           0
      7025 MEMB     62       OSM      H5S      HEL1     0.150000       1.00800           0
      7026 MEMB     62       OSM      C6S      CTL2    -0.180000       12.0110           0
      7027 MEMB     62       OSM      H6S      HAL2     0.900000E-01   1.00800           0
      7028 MEMB     62       OSM      H6T      HAL2     0.900000E-01   1.00800           0
      7029 MEMB     62       OSM      C7S      CTL2    -0.180000       12.0110           0
      7030 MEMB     62       OSM      H7S      HAL2     0.900000E-01   1.00800           0
      7031 MEMB     62       OSM      H7T      HAL2     0.900000E-01   1.00800           0
      7032 MEMB     62       OSM      C8S      CTL2    -0.180000       12.0110           0
      7033 MEMB     62       OSM      H8S      HAL2     0.900000E-01   1.00800           0
      7034 MEMB     62       OSM      H8T      HAL2     0.900000E-01   1.00800           0
      7035 MEMB     62       OSM      C9S      CTL2    -0.180000       12.0110           0
      7036 MEMB     62       OSM      H9S      HAL2     0.900000E-01   1.00800           0
      7037 MEMB     62       OSM      H9T      HAL2     0.900000E-01   1.00800           0
      7038 MEMB     62       OSM      C10S     CTL2    -0.180000       12.0110           0
      7039 MEMB     62       OSM      H10S     HAL2     0.900000E-01   1.00800           0
      7040 MEMB     62       OSM      H10T     HAL2     0.900000E-01   1.00800           0
      7041 MEMB     62       OSM      C11S     CTL2    -0.180000       12.0110           0
      7042 MEMB     62       OSM      H11S     HAL2     0.900000E-01   1.00800           0
      7043 MEMB     62       OSM      H11T     HAL2     0.900000E-01   1.00800           0
      7044 MEMB     62       OSM      C12S     CTL2    -0.180000       12.0110           0
      7045 MEMB     62       OSM      H12S     HAL2     0.900000E-01   1.00800           0
      7046 MEMB     62       OSM      H12T     HAL2     0.900000E-01   1.00800           0
      7047 MEMB     62       OSM      C13S     CTL2    -0.180000       12.0110           0
      7048 MEMB     62       OSM      H13S     HAL2     0.900000E-01   1.00800           0
      7049 MEMB     62       OSM      H13T     HAL2     0.900000E-01   1.00800           0
      7050 MEMB     62       OSM      C14S     CTL2    -0.180000       12.0110           0
      7051 MEMB     62       OSM      H14S     HAL2     0.900000E-01   1.00800           0
      7052 MEMB     62       OSM      H14T     HAL2     0.900000E-01   1.00800           0
      7053 MEMB     62       OSM      C15S     CTL2    -0.180000       12.0110           0
      7054 MEMB     62       OSM      H15S     HAL2     0.900000E-01   1.00800           0
      7055 MEMB     62       OSM      H15T     HAL2     0.900000E-01   1.00800           0
      7056 MEMB     62       OSM      C16S     CTL2    -0.180000       12.0110           0
      7057 MEMB     62       OSM      H16S     HAL2     0.900000E-01   1.00800           0
      7058 MEMB     62       OSM      H16T     HAL2     0.900000E-01   1.00800           0
      7059 MEMB     62       OSM      C17S     CTL2    -0.180000       12.0110           0
      7060 MEMB     62       OSM      H17S     HAL2     0.900000E-01   1.00800           0
      7061 MEMB     62       OSM      H17T     HAL2     0.900000E-01   1.00800           0
      7062 MEMB     62       OSM      C18S     CTL3    -0.270000       12.0110           0
      7063 MEMB     62       OSM      H18S     HAL3     0.900000E-01   1.00800           0
      7064 MEMB     62       OSM      H18T     HAL3     0.900000E-01   1.00800           0
      7065 MEMB     62       OSM      H18U     HAL3     0.900000E-01   1.00800           0
      7066 MEMB     62       OSM      C1F      C        0.550000       12.0110           0
      7067 MEMB     62       OSM      OF       O       -0.600000       15.9994           0
      7068 MEMB     62       OSM      C2F      CTL2    -0.700000E-01   12.0110           0
      7069 MEMB     62       OSM      H2F      HAL2     0.600000E-01   1.00800           0
      7070 MEMB     62       OSM      H2G      HAL2     0.600000E-01   1.00800           0
      7071 MEMB     62       OSM      C3F      CTL2    -0.180000       12.0110           0
      7072 MEMB     62       OSM      H3F      HAL2     0.900000E-01   1.00800           0
      7073 MEMB     62       OSM      H3G      HAL2     0.900000E-01   1.00800           0
      7074 MEMB     62       OSM      C4F      CTL2    -0.180000       12.0110           0
      7075 MEMB     62       OSM      H4F      HAL2     0.900000E-01   1.00800           0
      7076 MEMB     62       OSM      H4G      HAL2     0.900000E-01   1.00800           0
      7077 MEMB     62       OSM      C5F      CTL2    -0.180000       12.0110           0
      7078 MEMB     62       OSM      H5F      HAL2     0.900000E-01   1.00800           0
      7079 MEMB     62       OSM      H5G      HAL2     0.900000E-01   1.00800           0
      7080 MEMB     62       OSM      C6F      CTL2    -0.180000       12.0110           0
      7081 MEMB     62       OSM      H6F      HAL2     0.900000E-01   1.00800           0
      7082 MEMB     62       OSM      H6G      HAL2     0.900000E-01   1.00800           0
      7083 MEMB     62       OSM      C7F      CTL2    -0.180000       12.0110           0
      7084 MEMB     62       OSM      H7F      HAL2     0.900000E-01   1.00800           0
      7085 MEMB     62       OSM      H7G      HAL2     0.900000E-01   1.00800           0
      7086 MEMB     62       OSM      C8F      CTL2    -0.180000       12.0110           0
      7087 MEMB     62       OSM      H8F      HAL2     0.900000E-01   1.00800           0
      7088 MEMB     62       OSM      H8G      HAL2     0.900000E-01   1.00800           0
      7089 MEMB     62       OSM      C9F      CEL1    -0.150000       12.0110           0
      7090 MEMB     62       OSM      H9F      HEL1     0.150000       1.00800           0
      7091 MEMB     62       OSM      C10F     CEL1    -0.150000       12.0110           0
      7092 MEMB     62       OSM      H10F     HEL1     0.150000       1.00800           0
      7093 MEMB     62       OSM      C11F     CTL2    -0.180000       12.0110           0
      7094 MEMB     62       OSM      H11F     HAL2     0.900000E-01   1.00800           0
      7095 MEMB     62       OSM      H11G     HAL2     0.900000E-01   1.00800           0
      7096 MEMB     62       OSM      C12F     CTL2    -0.180000       12.0110           0
      7097 MEMB     62       OSM      H12F     HAL2     0.900000E-01   1.00800           0
      7098 MEMB     62       OSM      H12G     HAL2     0.900000E-01   1.00800           0
      7099 MEMB     62       OSM      C13F     CTL2    -0.180000       12.0110           0
      7100 MEMB     62       OSM      H13F     HAL2     0.900000E-01   1.00800           0
      7101 MEMB     62       OSM      H13G     HAL2     0.900000E-01   1.00800           0
      7102 MEMB     62       OSM      C14F     CTL2    -0.180000       12.0110           0
      7103 MEMB     62       OSM      H14F     HAL2     0.900000E-01   1.00800           0
      7104 MEMB     62       OSM      H14G     HAL2     0.900000E-01   1.00800           0
      7105 MEMB     62       OSM      C15F     CTL2    -0.180000       12.0110           0
      7106 MEMB     62       OSM      H15F     HAL2     0.900000E-01   1.00800           0
      7107 MEMB     62       OSM      H15G     HAL2     0.900000E-01   1.00800           0
      7108 MEMB     62       OSM      C16F     CTL2    -0.180000       12.0110           0
      7109 MEMB     62       OSM      H16F     HAL2     0.900000E-01   1.00800           0
      7110 MEMB     62       OSM      H16G     HAL2     0.900000E-01   1.00800           0
      7111 MEMB     62       OSM      C17F     CTL2    -0.180000       12.0110           0
      7112 MEMB     62       OSM      H17F     HAL2     0.900000E-01   1.00800           0
      7113 MEMB     62       OSM      H17G     HAL2     0.900000E-01   1.00800           0
      7114 MEMB     62       OSM      C18F     CTL3    -0.270000       12.0110           0
      7115 MEMB     62       OSM      H18F     HAL3     0.900000E-01   1.00800           0
      7116 MEMB     62       OSM      H18G     HAL3     0.900000E-01   1.00800           0
      7117 MEMB     62       OSM      H18H     HAL3     0.900000E-01   1.00800           0
      7118 MEMB     63       CHL1     C3       CRL1     0.140000       12.0110           0
      7119 MEMB     63       CHL1     H3       HGA1     0.900000E-01   1.00800           0
      7120 MEMB     63       CHL1     O3       OHL     -0.660000       15.9994           0
      7121 MEMB     63       CHL1     H3'      HOL      0.430000       1.00800           0
      7122 MEMB     63       CHL1     C4       CRL2    -0.180000       12.0110           0
      7123 MEMB     63       CHL1     H4A      HGA2     0.900000E-01   1.00800           0
      7124 MEMB     63       CHL1     H4B      HGA2     0.900000E-01   1.00800           0
      7125 MEMB     63       CHL1     C5       CEL1      0.00000       12.0110           0
      7126 MEMB     63       CHL1     C6       CEL1    -0.150000       12.0110           0
      7127 MEMB     63       CHL1     H6       HEL1     0.150000       1.00800           0
      7128 MEMB     63       CHL1     C7       CRL2    -0.180000       12.0110           0
      7129 MEMB     63       CHL1     H7A      HGA2     0.900000E-01   1.00800           0
      7130 MEMB     63       CHL1     H7B      HGA2     0.900000E-01   1.00800           0
      7131 MEMB     63       CHL1     C8       CRL1    -0.900000E-01   12.0110           0
      7132 MEMB     63       CHL1     H8       HGA1     0.900000E-01   1.00800           0
      7133 MEMB     63       CHL1     C14      CRL1    -0.900000E-01   12.0110           0
      7134 MEMB     63       CHL1     H14      HGA1     0.900000E-01   1.00800           0
      7135 MEMB     63       CHL1     C15      CRL2    -0.180000       12.0110           0
      7136 MEMB     63       CHL1     H15A     HGA2     0.900000E-01   1.00800           0
      7137 MEMB     63       CHL1     H15B     HGA2     0.900000E-01   1.00800           0
      7138 MEMB     63       CHL1     C16      CRL2    -0.180000       12.0110           0
      7139 MEMB     63       CHL1     H16A     HGA2     0.900000E-01   1.00800           0
      7140 MEMB     63       CHL1     H16B     HGA2     0.900000E-01   1.00800           0
      7141 MEMB     63       CHL1     C17      CRL1    -0.900000E-01   12.0110           0
      7142 MEMB     63       CHL1     H17      HGA1     0.900000E-01   1.00800           0
      7143 MEMB     63       CHL1     C13      CRL1      0.00000       12.0110           0
      7144 MEMB     63       CHL1     C18      CTL3    -0.270000       12.0110           0
      7145 MEMB     63       CHL1     H18A     HAL3     0.900000E-01   1.00800           0
      7146 MEMB     63       CHL1     H18B     HAL3     0.900000E-01   1.00800           0
      7147 MEMB     63       CHL1     H18C     HAL3     0.900000E-01   1.00800           0
      7148 MEMB     63       CHL1     C12      CRL2    -0.180000       12.0110           0
      7149 MEMB     63       CHL1     H12A     HGA2     0.900000E-01   1.00800           0
      7150 MEMB     63       CHL1     H12B     HGA2     0.900000E-01   1.00800           0
      7151 MEMB     63       CHL1     C11      CRL2    -0.180000       12.0110           0
      7152 MEMB     63       CHL1     H11A     HGA2     0.900000E-01   1.00800           0
      7153 MEMB     63       CHL1     H11B     HGA2     0.900000E-01   1.00800           0
      7154 MEMB     63       CHL1     C9       CRL1    -0.900000E-01   12.0110           0
      7155 MEMB     63       CHL1     H9       HGA1     0.900000E-01   1.00800           0
      7156 MEMB     63       CHL1     C10      CRL1      0.00000       12.0110           0
      7157 MEMB     63       CHL1     C19      CTL3    -0.270000       12.0110           0
      7158 MEMB     63       CHL1     H19A     HAL3     0.900000E-01   1.00800           0
      7159 MEMB     63       CHL1     H19B     HAL3     0.900000E-01   1.00800           0
      7160 MEMB     63       CHL1     H19C     HAL3     0.900000E-01   1.00800           0
      7161 MEMB     63       CHL1     C1       CRL2    -0.180000       12.0110           0
      7162 MEMB     63       CHL1     H1A      HGA2     0.900000E-01   1.00800           0
      7163 MEMB     63       CHL1     H1B      HGA2     0.900000E-01   1.00800           0
      7164 MEMB     63       CHL1     C2       CRL2    -0.180000       12.0110           0
      7165 MEMB     63       CHL1     H2A      HGA2     0.900000E-01   1.00800           0
      7166 MEMB     63       CHL1     H2B      HGA2     0.900000E-01   1.00800           0
      7167 MEMB     63       CHL1     C20      CTL1    -0.900000E-01   12.0110           0
      7168 MEMB     63       CHL1     H20      HAL1     0.900000E-01   1.00800           0
      7169 MEMB     63       CHL1     C21      CTL3    -0.270000       12.0110           0
      7170 MEMB     63       CHL1     H21A     HAL3     0.900000E-01   1.00800           0
      7171 MEMB     63       CHL1     H21B     HAL3     0.900000E-01   1.00800           0
      7172 MEMB     63       CHL1     H21C     HAL3     0.900000E-01   1.00800           0
      7173 MEMB     63       CHL1     C22      CTL2    -0.180000       12.0110           0
      7174 MEMB     63       CHL1     H22A     HAL2     0.900000E-01   1.00800           0
      7175 MEMB     63       CHL1     H22B     HAL2     0.900000E-01   1.00800           0
      7176 MEMB     63       CHL1     C23      CTL2    -0.180000       12.0110           0
      7177 MEMB     63       CHL1     H23A     HAL2     0.900000E-01   1.00800           0
      7178 MEMB     63       CHL1     H23B     HAL2     0.900000E-01   1.00800           0
      7179 MEMB     63       CHL1     C24      CTL2    -0.180000       12.0110           0
      7180 MEMB     63       CHL1     H24A     HAL2     0.900000E-01   1.00800           0
      7181 MEMB     63       CHL1     H24B     HAL2     0.900000E-01   1.00800           0
      7182 MEMB     63       CHL1     C25      CTL1    -0.900000E-01   12.0110           0
      7183 MEMB     63       CHL1     H25      HAL1     0.900000E-01   1.00800           0
      7184 MEMB     63       CHL1     C26      CTL3    -0.270000       12.0110           0
      7185 MEMB     63       CHL1     H26A     HAL3     0.900000E-01   1.00800           0
      7186 MEMB     63       CHL1     H26B     HAL3     0.900000E-01   1.00800           0
      7187 MEMB     63       CHL1     H26C     HAL3     0.900000E-01   1.00800           0
      7188 MEMB     63       CHL1     C27      CTL3    -0.270000       12.0110           0
      7189 MEMB     63       CHL1     H27A     HAL3     0.900000E-01   1.00800           0
      7190 MEMB     63       CHL1     H27B     HAL3     0.900000E-01   1.00800           0
      7191 MEMB     63       CHL1     H27C     HAL3     0.900000E-01   1.00800           0
      7192 MEMB     64       CHL1     C3       CRL1     0.140000       12.0110           0
      7193 MEMB     64       CHL1     H3       HGA1     0.900000E-01   1.00800           0
      7194 MEMB     64       CHL1     O3       OHL     -0.660000       15.9994           0
      7195 MEMB     64       CHL1     H3'      HOL      0.430000       1.00800           0
      7196 MEMB     64       CHL1     C4       CRL2    -0.180000       12.0110           0
      7197 MEMB     64       CHL1     H4A      HGA2     0.900000E-01   1.00800           0
      7198 MEMB     64       CHL1     H4B      HGA2     0.900000E-01   1.00800           0
      7199 MEMB     64       CHL1     C5       CEL1      0.00000       12.0110           0
      7200 MEMB     64       CHL1     C6       CEL1    -0.150000       12.0110           0
      7201 MEMB     64       CHL1     H6       HEL1     0.150000       1.00800           0
      7202 MEMB     64       CHL1     C7       CRL2    -0.180000       12.0110           0
      7203 MEMB     64       CHL1     H7A      HGA2     0.900000E-01   1.00800           0
      7204 MEMB     64       CHL1     H7B      HGA2     0.900000E-01   1.00800           0
      7205 MEMB     64       CHL1     C8       CRL1    -0.900000E-01   12.0110           0
      7206 MEMB     64       CHL1     H8       HGA1     0.900000E-01   1.00800           0
      7207 MEMB     64       CHL1     C14      CRL1    -0.900000E-01   12.0110           0
      7208 MEMB     64       CHL1     H14      HGA1     0.900000E-01   1.00800           0
      7209 MEMB     64       CHL1     C15      CRL2    -0.180000       12.0110           0
      7210 MEMB     64       CHL1     H15A     HGA2     0.900000E-01   1.00800           0
      7211 MEMB     64       CHL1     H15B     HGA2     0.900000E-01   1.00800           0
      7212 MEMB     64       CHL1     C16      CRL2    -0.180000       12.0110           0
      7213 MEMB     64       CHL1     H16A     HGA2     0.900000E-01   1.00800           0
      7214 MEMB     64       CHL1     H16B     HGA2     0.900000E-01   1.00800           0
      7215 MEMB     64       CHL1     C17      CRL1    -0.900000E-01   12.0110           0
      7216 MEMB     64       CHL1     H17      HGA1     0.900000E-01   1.00800           0
      7217 MEMB     64       CHL1     C13      CRL1      0.00000       12.0110           0
      7218 MEMB     64       CHL1     C18      CTL3    -0.270000       12.0110           0
      7219 MEMB     64       CHL1     H18A     HAL3     0.900000E-01   1.00800           0
      7220 MEMB     64       CHL1     H18B     HAL3     0.900000E-01   1.00800           0
      7221 MEMB     64       CHL1     H18C     HAL3     0.900000E-01   1.00800           0
      7222 MEMB     64       CHL1     C12      CRL2    -0.180000       12.0110           0
      7223 MEMB     64       CHL1     H12A     HGA2     0.900000E-01   1.00800           0
      7224 MEMB     64       CHL1     H12B     HGA2     0.900000E-01   1.00800           0
      7225 MEMB     64       CHL1     C11      CRL2    -0.180000       12.0110           0
      7226 MEMB     64       CHL1     H11A     HGA2     0.900000E-01   1.00800           0
      7227 MEMB     64       CHL1     H11B     HGA2     0.900000E-01   1.00800           0
      7228 MEMB     64       CHL1     C9       CRL1    -0.900000E-01   12.0110           0
      7229 MEMB     64       CHL1     H9       HGA1     0.900000E-01   1.00800           0
      7230 MEMB     64       CHL1     C10      CRL1      0.00000       12.0110           0
      7231 MEMB     64       CHL1     C19      CTL3    -0.270000       12.0110           0
      7232 MEMB     64       CHL1     H19A     HAL3     0.900000E-01   1.00800           0
      7233 MEMB     64       CHL1     H19B     HAL3     0.900000E-01   1.00800           0
      7234 MEMB     64       CHL1     H19C     HAL3     0.900000E-01   1.00800           0
      7235 MEMB     64       CHL1     C1       CRL2    -0.180000       12.0110           0
      7236 MEMB     64       CHL1     H1A      HGA2     0.900000E-01   1.00800           0
      7237 MEMB     64       CHL1     H1B      HGA2     0.900000E-01   1.00800           0
      7238 MEMB     64       CHL1     C2       CRL2    -0.180000       12.0110           0
      7239 MEMB     64       CHL1     H2A      HGA2     0.900000E-01   1.00800           0
      7240 MEMB     64       CHL1     H2B      HGA2     0.900000E-01   1.00800           0
      7241 MEMB     64       CHL1     C20      CTL1    -0.900000E-01   12.0110           0
      7242 MEMB     64       CHL1     H20      HAL1     0.900000E-01   1.00800           0
      7243 MEMB     64       CHL1     C21      CTL3    -0.270000       12.0110           0
      7244 MEMB     64       CHL1     H21A     HAL3     0.900000E-01   1.00800           0
      7245 MEMB     64       CHL1     H21B     HAL3     0.900000E-01   1.00800           0
      7246 MEMB     64       CHL1     H21C     HAL3     0.900000E-01   1.00800           0
      7247 MEMB     64       CHL1     C22      CTL2    -0.180000       12.0110           0
      7248 MEMB     64       CHL1     H22A     HAL2     0.900000E-01   1.00800           0
      7249 MEMB     64       CHL1     H22B     HAL2     0.900000E-01   1.00800           0
      7250 MEMB     64       CHL1     C23      CTL2    -0.180000       12.0110           0
      7251 MEMB     64       CHL1     H23A     HAL2     0.900000E-01   1.00800           0
      7252 MEMB     64       CHL1     H23B     HAL2     0.900000E-01   1.00800           0
      7253 MEMB     64       CHL1     C24      CTL2    -0.180000       12.0110           0
      7254 MEMB     64       CHL1     H24A     HAL2     0.900000E-01   1.00800           0
      7255 MEMB     64       CHL1     H24B     HAL2     0.900000E-01   1.00800           0
      7256 MEMB     64       CHL1     C25      CTL1    -0.900000E-01   12.0110           0
      7257 MEMB     64       CHL1     H25      HAL1     0.900000E-01   1.00800           0
      7258 MEMB     64       CHL1     C26      CTL3    -0.270000       12.0110           0
      7259 MEMB     64       CHL1     H26A     HAL3     0.900000E-01   1.00800           0
      7260 MEMB     64       CHL1     H26B     HAL3     0.900000E-01   1.00800           0
      7261 MEMB     64       CHL1     H26C     HAL3     0.900000E-01   1.00800           0
      7262 MEMB     64       CHL1     C27      CTL3    -0.270000       12.0110           0
      7263 MEMB     64       CHL1     H27A     HAL3     0.900000E-01   1.00800           0
      7264 MEMB     64       CHL1     H27B     HAL3     0.900000E-01   1.00800           0
      7265 MEMB     64       CHL1     H27C     HAL3     0.900000E-01   1.00800           0
      7266 MEMB     65       OSM      N        NTL     -0.600000       14.0070           0
      7267 MEMB     65       OSM      C15      CTL5    -0.350000       12.0110           0
      7268 MEMB     65       OSM      H15A     HL       0.250000       1.00800           0
      7269 MEMB     65       OSM      H15B     HL       0.250000       1.00800           0
      7270 MEMB     65       OSM      H15C     HL       0.250000       1.00800           0
      7271 MEMB     65       OSM      C14      CTL5    -0.350000       12.0110           0
      7272 MEMB     65       OSM      H14A     HL       0.250000       1.00800           0
      7273 MEMB     65       OSM      H14B     HL       0.250000       1.00800           0
      7274 MEMB     65       OSM      H14C     HL       0.250000       1.00800           0
      7275 MEMB     65       OSM      C13      CTL5    -0.350000       12.0110           0
      7276 MEMB     65       OSM      H13A     HL       0.250000       1.00800           0
      7277 MEMB     65       OSM      H13B     HL       0.250000       1.00800           0
      7278 MEMB     65       OSM      H13C     HL       0.250000       1.00800           0
      7279 MEMB     65       OSM      C12      CTL2    -0.100000       12.0110           0
      7280 MEMB     65       OSM      H12A     HL       0.250000       1.00800           0
      7281 MEMB     65       OSM      H12B     HL       0.250000       1.00800           0
      7282 MEMB     65       OSM      C11      CTL2    -0.800000E-01   12.0110           0
      7283 MEMB     65       OSM      H11A     HAL2     0.900000E-01   1.00800           0
      7284 MEMB     65       OSM      H11B     HAL2     0.900000E-01   1.00800           0
      7285 MEMB     65       OSM      P        PL        1.50000       30.9740           0
      7286 MEMB     65       OSM      O13      O2L     -0.780000       15.9994           0
      7287 MEMB     65       OSM      O14      O2L     -0.780000       15.9994           0
      7288 MEMB     65       OSM      O11      OSLP    -0.570000       15.9994           0
      7289 MEMB     65       OSM      O12      OSLP    -0.570000       15.9994           0
      7290 MEMB     65       OSM      C1S      CTL2    -0.800000E-01   12.0110           0
      7291 MEMB     65       OSM      H1S      HAL2     0.900000E-01   1.00800           0
      7292 MEMB     65       OSM      H1T      HAL2     0.900000E-01   1.00800           0
      7293 MEMB     65       OSM      NF       NHL     -0.700000       14.0070           0
      7294 MEMB     65       OSM      HNF      H        0.350000       1.00800           0
      7295 MEMB     65       OSM      C2S      CTL1     0.300000       12.0110           0
      7296 MEMB     65       OSM      H2S      HAL1     0.500000E-01   1.00800           0
      7297 MEMB     65       OSM      C3S      CTO1     0.500000       12.0110           0
      7298 MEMB     65       OSM      H3S      HAL1    -0.110000       1.00800           0
      7299 MEMB     65       OSM      O3       OHL     -0.690000       15.9994           0
      7300 MEMB     65       OSM      HO3      HOL      0.300000       1.00800           0
      7301 MEMB     65       OSM      C4S      CEL3    -0.150000       12.0110           0
      7302 MEMB     65       OSM      H4S      HEL1     0.150000       1.00800           0
      7303 MEMB     65       OSM      C5S      CEL3    -0.150000       12.0110           0
      7304 MEMB     65       OSM      H5S      HEL1     0.150000       1.00800           0
      7305 MEMB     65       OSM      C6S      CTL2    -0.180000       12.0110           0
      7306 MEMB     65       OSM      H6S      HAL2     0.900000E-01   1.00800           0
      7307 MEMB     65       OSM      H6T      HAL2     0.900000E-01   1.00800           0
      7308 MEMB     65       OSM      C7S      CTL2    -0.180000       12.0110           0
      7309 MEMB     65       OSM      H7S      HAL2     0.900000E-01   1.00800           0
      7310 MEMB     65       OSM      H7T      HAL2     0.900000E-01   1.00800           0
      7311 MEMB     65       OSM      C8S      CTL2    -0.180000       12.0110           0
      7312 MEMB     65       OSM      H8S      HAL2     0.900000E-01   1.00800           0
      7313 MEMB     65       OSM      H8T      HAL2     0.900000E-01   1.00800           0
      7314 MEMB     65       OSM      C9S      CTL2    -0.180000       12.0110           0
      7315 MEMB     65       OSM      H9S      HAL2     0.900000E-01   1.00800           0
      7316 MEMB     65       OSM      H9T      HAL2     0.900000E-01   1.00800           0
      7317 MEMB     65       OSM      C10S     CTL2    -0.180000       12.0110           0
      7318 MEMB     65       OSM      H10S     HAL2     0.900000E-01   1.00800           0
      7319 MEMB     65       OSM      H10T     HAL2     0.900000E-01   1.00800           0
      7320 MEMB     65       OSM      C11S     CTL2    -0.180000       12.0110           0
      7321 MEMB     65       OSM      H11S     HAL2     0.900000E-01   1.00800           0
      7322 MEMB     65       OSM      H11T     HAL2     0.900000E-01   1.00800           0
      7323 MEMB     65       OSM      C12S     CTL2    -0.180000       12.0110           0
      7324 MEMB     65       OSM      H12S     HAL2     0.900000E-01   1.00800           0
      7325 MEMB     65       OSM      H12T     HAL2     0.900000E-01   1.00800           0
      7326 MEMB     65       OSM      C13S     CTL2    -0.180000       12.0110           0
      7327 MEMB     65       OSM      H13S     HAL2     0.900000E-01   1.00800           0
      7328 MEMB     65       OSM      H13T     HAL2     0.900000E-01   1.00800           0
      7329 MEMB     65       OSM      C14S     CTL2    -0.180000       12.0110           0
      7330 MEMB     65       OSM      H14S     HAL2     0.900000E-01   1.00800           0
      7331 MEMB     65       OSM      H14T     HAL2     0.900000E-01   1.00800           0
      7332 MEMB     65       OSM      C15S     CTL2    -0.180000       12.0110           0
      7333 MEMB     65       OSM      H15S     HAL2     0.900000E-01   1.00800           0
      7334 MEMB     65       OSM      H15T     HAL2     0.900000E-01   1.00800           0
      7335 MEMB     65       OSM      C16S     CTL2    -0.180000       12.0110           0
      7336 MEMB     65       OSM      H16S     HAL2     0.900000E-01   1.00800           0
      7337 MEMB     65       OSM      H16T     HAL2     0.900000E-01   1.00800           0
      7338 MEMB     65       OSM      C17S     CTL2    -0.180000       12.0110           0
      7339 MEMB     65       OSM      H17S     HAL2     0.900000E-01   1.00800           0
      7340 MEMB     65       OSM      H17T     HAL2     0.900000E-01   1.00800           0
      7341 MEMB     65       OSM      C18S     CTL3    -0.270000       12.0110           0
      7342 MEMB     65       OSM      H18S     HAL3     0.900000E-01   1.00800           0
      7343 MEMB     65       OSM      H18T     HAL3     0.900000E-01   1.00800           0
      7344 MEMB     65       OSM      H18U     HAL3     0.900000E-01   1.00800           0
      7345 MEMB     65       OSM      C1F      C        0.550000       12.0110           0
      7346 MEMB     65       OSM      OF       O       -0.600000       15.9994           0
      7347 MEMB     65       OSM      C2F      CTL2    -0.700000E-01   12.0110           0
      7348 MEMB     65       OSM      H2F      HAL2     0.600000E-01   1.00800           0
      7349 MEMB     65       OSM      H2G      HAL2     0.600000E-01   1.00800           0
      7350 MEMB     65       OSM      C3F      CTL2    -0.180000       12.0110           0
      7351 MEMB     65       OSM      H3F      HAL2     0.900000E-01   1.00800           0
      7352 MEMB     65       OSM      H3G      HAL2     0.900000E-01   1.00800           0
      7353 MEMB     65       OSM      C4F      CTL2    -0.180000       12.0110           0
      7354 MEMB     65       OSM      H4F      HAL2     0.900000E-01   1.00800           0
      7355 MEMB     65       OSM      H4G      HAL2     0.900000E-01   1.00800           0
      7356 MEMB     65       OSM      C5F      CTL2    -0.180000       12.0110           0
      7357 MEMB     65       OSM      H5F      HAL2     0.900000E-01   1.00800           0
      7358 MEMB     65       OSM      H5G      HAL2     0.900000E-01   1.00800           0
      7359 MEMB     65       OSM      C6F      CTL2    -0.180000       12.0110           0
      7360 MEMB     65       OSM      H6F      HAL2     0.900000E-01   1.00800           0
      7361 MEMB     65       OSM      H6G      HAL2     0.900000E-01   1.00800           0
      7362 MEMB     65       OSM      C7F      CTL2    -0.180000       12.0110           0
      7363 MEMB     65       OSM      H7F      HAL2     0.900000E-01   1.00800           0
      7364 MEMB     65       OSM      H7G      HAL2     0.900000E-01   1.00800           0
      7365 MEMB     65       OSM      C8F      CTL2    -0.180000       12.0110           0
      7366 MEMB     65       OSM      H8F      HAL2     0.900000E-01   1.00800           0
      7367 MEMB     65       OSM      H8G      HAL2     0.900000E-01   1.00800           0
      7368 MEMB     65       OSM      C9F      CEL1    -0.150000       12.0110           0
      7369 MEMB     65       OSM      H9F      HEL1     0.150000       1.00800           0
      7370 MEMB     65       OSM      C10F     CEL1    -0.150000       12.0110           0
      7371 MEMB     65       OSM      H10F     HEL1     0.150000       1.00800           0
      7372 MEMB     65       OSM      C11F     CTL2    -0.180000       12.0110           0
      7373 MEMB     65       OSM      H11F     HAL2     0.900000E-01   1.00800           0
      7374 MEMB     65       OSM      H11G     HAL2     0.900000E-01   1.00800           0
      7375 MEMB     65       OSM      C12F     CTL2    -0.180000       12.0110           0
      7376 MEMB     65       OSM      H12F     HAL2     0.900000E-01   1.00800           0
      7377 MEMB     65       OSM      H12G     HAL2     0.900000E-01   1.00800           0
      7378 MEMB     65       OSM      C13F     CTL2    -0.180000       12.0110           0
      7379 MEMB     65       OSM      H13F     HAL2     0.900000E-01   1.00800           0
      7380 MEMB     65       OSM      H13G     HAL2     0.900000E-01   1.00800           0
      7381 MEMB     65       OSM      C14F     CTL2    -0.180000       12.0110           0
      7382 MEMB     65       OSM      H14F     HAL2     0.900000E-01   1.00800           0
      7383 MEMB     65       OSM      H14G     HAL2     0.900000E-01   1.00800           0
      7384 MEMB     65       OSM      C15F     CTL2    -0.180000       12.0110           0
      7385 MEMB     65       OSM      H15F     HAL2     0.900000E-01   1.00800           0
      7386 MEMB     65       OSM      H15G     HAL2     0.900000E-01   1.00800           0
      7387 MEMB     65       OSM      C16F     CTL2    -0.180000       12.0110           0
      7388 MEMB     65       OSM      H16F     HAL2     0.900000E-01   1.00800           0
      7389 MEMB     65       OSM      H16G     HAL2     0.900000E-01   1.00800           0
      7390 MEMB     65       OSM      C17F     CTL2    -0.180000       12.0110           0
      7391 MEMB     65       OSM      H17F     HAL2     0.900000E-01   1.00800           0
      7392 MEMB     65       OSM      H17G     HAL2     0.900000E-01   1.00800           0
      7393 MEMB     65       OSM      C18F     CTL3    -0.270000       12.0110           0
      7394 MEMB     65       OSM      H18F     HAL3     0.900000E-01   1.00800           0
      7395 MEMB     65       OSM      H18G     HAL3     0.900000E-01   1.00800           0
      7396 MEMB     65       OSM      H18H     HAL3     0.900000E-01   1.00800           0
      7397 MEMB     66       CHL1     C3       CRL1     0.140000       12.0110           0
      7398 MEMB     66       CHL1     H3       HGA1     0.900000E-01   1.00800           0
      7399 MEMB     66       CHL1     O3       OHL     -0.660000       15.9994           0
      7400 MEMB     66       CHL1     H3'      HOL      0.430000       1.00800           0
      7401 MEMB     66       CHL1     C4       CRL2    -0.180000       12.0110           0
      7402 MEMB     66       CHL1     H4A      HGA2     0.900000E-01   1.00800           0
      7403 MEMB     66       CHL1     H4B      HGA2     0.900000E-01   1.00800           0
      7404 MEMB     66       CHL1     C5       CEL1      0.00000       12.0110           0
      7405 MEMB     66       CHL1     C6       CEL1    -0.150000       12.0110           0
      7406 MEMB     66       CHL1     H6       HEL1     0.150000       1.00800           0
      7407 MEMB     66       CHL1     C7       CRL2    -0.180000       12.0110           0
      7408 MEMB     66       CHL1     H7A      HGA2     0.900000E-01   1.00800           0
      7409 MEMB     66       CHL1     H7B      HGA2     0.900000E-01   1.00800           0
      7410 MEMB     66       CHL1     C8       CRL1    -0.900000E-01   12.0110           0
      7411 MEMB     66       CHL1     H8       HGA1     0.900000E-01   1.00800           0
      7412 MEMB     66       CHL1     C14      CRL1    -0.900000E-01   12.0110           0
      7413 MEMB     66       CHL1     H14      HGA1     0.900000E-01   1.00800           0
      7414 MEMB     66       CHL1     C15      CRL2    -0.180000       12.0110           0
      7415 MEMB     66       CHL1     H15A     HGA2     0.900000E-01   1.00800           0
      7416 MEMB     66       CHL1     H15B     HGA2     0.900000E-01   1.00800           0
      7417 MEMB     66       CHL1     C16      CRL2    -0.180000       12.0110           0
      7418 MEMB     66       CHL1     H16A     HGA2     0.900000E-01   1.00800           0
      7419 MEMB     66       CHL1     H16B     HGA2     0.900000E-01   1.00800           0
      7420 MEMB     66       CHL1     C17      CRL1    -0.900000E-01   12.0110           0
      7421 MEMB     66       CHL1     H17      HGA1     0.900000E-01   1.00800           0
      7422 MEMB     66       CHL1     C13      CRL1      0.00000       12.0110           0
      7423 MEMB     66       CHL1     C18      CTL3    -0.270000       12.0110           0
      7424 MEMB     66       CHL1     H18A     HAL3     0.900000E-01   1.00800           0
      7425 MEMB     66       CHL1     H18B     HAL3     0.900000E-01   1.00800           0
      7426 MEMB     66       CHL1     H18C     HAL3     0.900000E-01   1.00800           0
      7427 MEMB     66       CHL1     C12      CRL2    -0.180000       12.0110           0
      7428 MEMB     66       CHL1     H12A     HGA2     0.900000E-01   1.00800           0
      7429 MEMB     66       CHL1     H12B     HGA2     0.900000E-01   1.00800           0
      7430 MEMB     66       CHL1     C11      CRL2    -0.180000       12.0110           0
      7431 MEMB     66       CHL1     H11A     HGA2     0.900000E-01   1.00800           0
      7432 MEMB     66       CHL1     H11B     HGA2     0.900000E-01   1.00800           0
      7433 MEMB     66       CHL1     C9       CRL1    -0.900000E-01   12.0110           0
      7434 MEMB     66       CHL1     H9       HGA1     0.900000E-01   1.00800           0
      7435 MEMB     66       CHL1     C10      CRL1      0.00000       12.0110           0
      7436 MEMB     66       CHL1     C19      CTL3    -0.270000       12.0110           0
      7437 MEMB     66       CHL1     H19A     HAL3     0.900000E-01   1.00800           0
      7438 MEMB     66       CHL1     H19B     HAL3     0.900000E-01   1.00800           0
      7439 MEMB     66       CHL1     H19C     HAL3     0.900000E-01   1.00800           0
      7440 MEMB     66       CHL1     C1       CRL2    -0.180000       12.0110           0
      7441 MEMB     66       CHL1     H1A      HGA2     0.900000E-01   1.00800           0
      7442 MEMB     66       CHL1     H1B      HGA2     0.900000E-01   1.00800           0
      7443 MEMB     66       CHL1     C2       CRL2    -0.180000       12.0110           0
      7444 MEMB     66       CHL1     H2A      HGA2     0.900000E-01   1.00800           0
      7445 MEMB     66       CHL1     H2B      HGA2     0.900000E-01   1.00800           0
      7446 MEMB     66       CHL1     C20      CTL1    -0.900000E-01   12.0110           0
      7447 MEMB     66       CHL1     H20      HAL1     0.900000E-01   1.00800           0
      7448 MEMB     66       CHL1     C21      CTL3    -0.270000       12.0110           0
      7449 MEMB     66       CHL1     H21A     HAL3     0.900000E-01   1.00800           0
      7450 MEMB     66       CHL1     H21B     HAL3     0.900000E-01   1.00800           0
      7451 MEMB     66       CHL1     H21C     HAL3     0.900000E-01   1.00800           0
      7452 MEMB     66       CHL1     C22      CTL2    -0.180000       12.0110           0
      7453 MEMB     66       CHL1     H22A     HAL2     0.900000E-01   1.00800           0
      7454 MEMB     66       CHL1     H22B     HAL2     0.900000E-01   1.00800           0
      7455 MEMB     66       CHL1     C23      CTL2    -0.180000       12.0110           0
      7456 MEMB     66       CHL1     H23A     HAL2     0.900000E-01   1.00800           0
      7457 MEMB     66       CHL1     H23B     HAL2     0.900000E-01   1.00800           0
      7458 MEMB     66       CHL1     C24      CTL2    -0.180000       12.0110           0
      7459 MEMB     66       CHL1     H24A     HAL2     0.900000E-01   1.00800           0
      7460 MEMB     66       CHL1     H24B     HAL2     0.900000E-01   1.00800           0
      7461 MEMB     66       CHL1     C25      CTL1    -0.900000E-01   12.0110           0
      7462 MEMB     66       CHL1     H25      HAL1     0.900000E-01   1.00800           0
      7463 MEMB     66       CHL1     C26      CTL3    -0.270000       12.0110           0
      7464 MEMB     66       CHL1     H26A     HAL3     0.900000E-01   1.00800           0
      7465 MEMB     66       CHL1     H26B     HAL3     0.900000E-01   1.00800           0
      7466 MEMB     66       CHL1     H26C     HAL3     0.900000E-01   1.00800           0
      7467 MEMB     66       CHL1     C27      CTL3    -0.270000       12.0110           0
      7468 MEMB     66       CHL1     H27A     HAL3     0.900000E-01   1.00800           0
      7469 MEMB     66       CHL1     H27B     HAL3     0.900000E-01   1.00800           0
      7470 MEMB     66       CHL1     H27C     HAL3     0.900000E-01   1.00800           0
      7471 MEMB     67       OSM      N        NTL     -0.600000       14.0070           0
      7472 MEMB     67       OSM      C15      CTL5    -0.350000       12.0110           0
      7473 MEMB     67       OSM      H15A     HL       0.250000       1.00800           0
      7474 MEMB     67       OSM      H15B     HL       0.250000       1.00800           0
      7475 MEMB     67       OSM      H15C     HL       0.250000       1.00800           0
      7476 MEMB     67       OSM      C14      CTL5    -0.350000       12.0110           0
      7477 MEMB     67       OSM      H14A     HL       0.250000       1.00800           0
      7478 MEMB     67       OSM      H14B     HL       0.250000       1.00800           0
      7479 MEMB     67       OSM      H14C     HL       0.250000       1.00800           0
      7480 MEMB     67       OSM      C13      CTL5    -0.350000       12.0110           0
      7481 MEMB     67       OSM      H13A     HL       0.250000       1.00800           0
      7482 MEMB     67       OSM      H13B     HL       0.250000       1.00800           0
      7483 MEMB     67       OSM      H13C     HL       0.250000       1.00800           0
      7484 MEMB     67       OSM      C12      CTL2    -0.100000       12.0110           0
      7485 MEMB     67       OSM      H12A     HL       0.250000       1.00800           0
      7486 MEMB     67       OSM      H12B     HL       0.250000       1.00800           0
      7487 MEMB     67       OSM      C11      CTL2    -0.800000E-01   12.0110           0
      7488 MEMB     67       OSM      H11A     HAL2     0.900000E-01   1.00800           0
      7489 MEMB     67       OSM      H11B     HAL2     0.900000E-01   1.00800           0
      7490 MEMB     67       OSM      P        PL        1.50000       30.9740           0
      7491 MEMB     67       OSM      O13      O2L     -0.780000       15.9994           0
      7492 MEMB     67       OSM      O14      O2L     -0.780000       15.9994           0
      7493 MEMB     67       OSM      O11      OSLP    -0.570000       15.9994           0
      7494 MEMB     67       OSM      O12      OSLP    -0.570000       15.9994           0
      7495 MEMB     67       OSM      C1S      CTL2    -0.800000E-01   12.0110           0
      7496 MEMB     67       OSM      H1S      HAL2     0.900000E-01   1.00800           0
      7497 MEMB     67       OSM      H1T      HAL2     0.900000E-01   1.00800           0
      7498 MEMB     67       OSM      NF       NHL     -0.700000       14.0070           0
      7499 MEMB     67       OSM      HNF      H        0.350000       1.00800           0
      7500 MEMB     67       OSM      C2S      CTL1     0.300000       12.0110           0
      7501 MEMB     67       OSM      H2S      HAL1     0.500000E-01   1.00800           0
      7502 MEMB     67       OSM      C3S      CTO1     0.500000       12.0110           0
      7503 MEMB     67       OSM      H3S      HAL1    -0.110000       1.00800           0
      7504 MEMB     67       OSM      O3       OHL     -0.690000       15.9994           0
      7505 MEMB     67       OSM      HO3      HOL      0.300000       1.00800           0
      7506 MEMB     67       OSM      C4S      CEL3    -0.150000       12.0110           0
      7507 MEMB     67       OSM      H4S      HEL1     0.150000       1.00800           0
      7508 MEMB     67       OSM      C5S      CEL3    -0.150000       12.0110           0
      7509 MEMB     67       OSM      H5S      HEL1     0.150000       1.00800           0
      7510 MEMB     67       OSM      C6S      CTL2    -0.180000       12.0110           0
      7511 MEMB     67       OSM      H6S      HAL2     0.900000E-01   1.00800           0
      7512 MEMB     67       OSM      H6T      HAL2     0.900000E-01   1.00800           0
      7513 MEMB     67       OSM      C7S      CTL2    -0.180000       12.0110           0
      7514 MEMB     67       OSM      H7S      HAL2     0.900000E-01   1.00800           0
      7515 MEMB     67       OSM      H7T      HAL2     0.900000E-01   1.00800           0
      7516 MEMB     67       OSM      C8S      CTL2    -0.180000       12.0110           0
      7517 MEMB     67       OSM      H8S      HAL2     0.900000E-01   1.00800           0
      7518 MEMB     67       OSM      H8T      HAL2     0.900000E-01   1.00800           0
      7519 MEMB     67       OSM      C9S      CTL2    -0.180000       12.0110           0
      7520 MEMB     67       OSM      H9S      HAL2     0.900000E-01   1.00800           0
      7521 MEMB     67       OSM      H9T      HAL2     0.900000E-01   1.00800           0
      7522 MEMB     67       OSM      C10S     CTL2    -0.180000       12.0110           0
      7523 MEMB     67       OSM      H10S     HAL2     0.900000E-01   1.00800           0
      7524 MEMB     67       OSM      H10T     HAL2     0.900000E-01   1.00800           0
      7525 MEMB     67       OSM      C11S     CTL2    -0.180000       12.0110           0
      7526 MEMB     67       OSM      H11S     HAL2     0.900000E-01   1.00800           0
      7527 MEMB     67       OSM      H11T     HAL2     0.900000E-01   1.00800           0
      7528 MEMB     67       OSM      C12S     CTL2    -0.180000       12.0110           0
      7529 MEMB     67       OSM      H12S     HAL2     0.900000E-01   1.00800           0
      7530 MEMB     67       OSM      H12T     HAL2     0.900000E-01   1.00800           0
      7531 MEMB     67       OSM      C13S     CTL2    -0.180000       12.0110           0
      7532 MEMB     67       OSM      H13S     HAL2     0.900000E-01   1.00800           0
      7533 MEMB     67       OSM      H13T     HAL2     0.900000E-01   1.00800           0
      7534 MEMB     67       OSM      C14S     CTL2    -0.180000       12.0110           0
      7535 MEMB     67       OSM      H14S     HAL2     0.900000E-01   1.00800           0
      7536 MEMB     67       OSM      H14T     HAL2     0.900000E-01   1.00800           0
      7537 MEMB     67       OSM      C15S     CTL2    -0.180000       12.0110           0
      7538 MEMB     67       OSM      H15S     HAL2     0.900000E-01   1.00800           0
      7539 MEMB     67       OSM      H15T     HAL2     0.900000E-01   1.00800           0
      7540 MEMB     67       OSM      C16S     CTL2    -0.180000       12.0110           0
      7541 MEMB     67       OSM      H16S     HAL2     0.900000E-01   1.00800           0
      7542 MEMB     67       OSM      H16T     HAL2     0.900000E-01   1.00800           0
      7543 MEMB     67       OSM      C17S     CTL2    -0.180000       12.0110           0
      7544 MEMB     67       OSM      H17S     HAL2     0.900000E-01   1.00800           0
      7545 MEMB     67       OSM      H17T     HAL2     0.900000E-01   1.00800           0
      7546 MEMB     67       OSM      C18S     CTL3    -0.270000       12.0110           0
      7547 MEMB     67       OSM      H18S     HAL3     0.900000E-01   1.00800           0
      7548 MEMB     67       OSM      H18T     HAL3     0.900000E-01   1.00800           0
      7549 MEMB     67       OSM      H18U     HAL3     0.900000E-01   1.00800           0
      7550 MEMB     67       OSM      C1F      C        0.550000       12.0110           0
      7551 MEMB     67       OSM      OF       O       -0.600000       15.9994           0
      7552 MEMB     67       OSM      C2F      CTL2    -0.700000E-01   12.0110           0
      7553 MEMB     67       OSM      H2F      HAL2     0.600000E-01   1.00800           0
      7554 MEMB     67       OSM      H2G      HAL2     0.600000E-01   1.00800           0
      7555 MEMB     67       OSM      C3F      CTL2    -0.180000       12.0110           0
      7556 MEMB     67       OSM      H3F      HAL2     0.900000E-01   1.00800           0
      7557 MEMB     67       OSM      H3G      HAL2     0.900000E-01   1.00800           0
      7558 MEMB     67       OSM      C4F      CTL2    -0.180000       12.0110           0
      7559 MEMB     67       OSM      H4F      HAL2     0.900000E-01   1.00800           0
      7560 MEMB     67       OSM      H4G      HAL2     0.900000E-01   1.00800           0
      7561 MEMB     67       OSM      C5F      CTL2    -0.180000       12.0110           0
      7562 MEMB     67       OSM      H5F      HAL2     0.900000E-01   1.00800           0
      7563 MEMB     67       OSM      H5G      HAL2     0.900000E-01   1.00800           0
      7564 MEMB     67       OSM      C6F      CTL2    -0.180000       12.0110           0
      7565 MEMB     67       OSM      H6F      HAL2     0.900000E-01   1.00800           0
      7566 MEMB     67       OSM      H6G      HAL2     0.900000E-01   1.00800           0
      7567 MEMB     67       OSM      C7F      CTL2    -0.180000       12.0110           0
      7568 MEMB     67       OSM      H7F      HAL2     0.900000E-01   1.00800           0
      7569 MEMB     67       OSM      H7G      HAL2     0.900000E-01   1.00800           0
      7570 MEMB     67       OSM      C8F      CTL2    -0.180000       12.0110           0
      7571 MEMB     67       OSM      H8F      HAL2     0.900000E-01   1.00800           0
      7572 MEMB     67       OSM      H8G      HAL2     0.900000E-01   1.00800           0
      7573 MEMB     67       OSM      C9F      CEL1    -0.150000       12.0110           0
      7574 MEMB     67       OSM      H9F      HEL1     0.150000       1.00800           0
      7575 MEMB     67       OSM      C10F     CEL1    -0.150000       12.0110           0
      7576 MEMB     67       OSM      H10F     HEL1     0.150000       1.00800           0
      7577 MEMB     67       OSM      C11F     CTL2    -0.180000       12.0110           0
      7578 MEMB     67       OSM      H11F     HAL2     0.900000E-01   1.00800           0
      7579 MEMB     67       OSM      H11G     HAL2     0.900000E-01   1.00800           0
      7580 MEMB     67       OSM      C12F     CTL2    -0.180000       12.0110           0
      7581 MEMB     67       OSM      H12F     HAL2     0.900000E-01   1.00800           0
      7582 MEMB     67       OSM      H12G     HAL2     0.900000E-01   1.00800           0
      7583 MEMB     67       OSM      C13F     CTL2    -0.180000       12.0110           0
      7584 MEMB     67       OSM      H13F     HAL2     0.900000E-01   1.00800           0
      7585 MEMB     67       OSM      H13G     HAL2     0.900000E-01   1.00800           0
      7586 MEMB     67       OSM      C14F     CTL2    -0.180000       12.0110           0
      7587 MEMB     67       OSM      H14F     HAL2     0.900000E-01   1.00800           0
      7588 MEMB     67       OSM      H14G     HAL2     0.900000E-01   1.00800           0
      7589 MEMB     67       OSM      C15F     CTL2    -0.180000       12.0110           0
      7590 MEMB     67       OSM      H15F     HAL2     0.900000E-01   1.00800           0
      7591 MEMB     67       OSM      H15G     HAL2     0.900000E-01   1.00800           0
      7592 MEMB     67       OSM      C16F     CTL2    -0.180000       12.0110           0
      7593 MEMB     67       OSM      H16F     HAL2     0.900000E-01   1.00800           0
      7594 MEMB     67       OSM      H16G     HAL2     0.900000E-01   1.00800           0
      7595 MEMB     67       OSM      C17F     CTL2    -0.180000       12.0110           0
      7596 MEMB     67       OSM      H17F     HAL2     0.900000E-01   1.00800           0
      7597 MEMB     67       OSM      H17G     HAL2     0.900000E-01   1.00800           0
      7598 MEMB     67       OSM      C18F     CTL3    -0.270000       12.0110           0
      7599 MEMB     67       OSM      H18F     HAL3     0.900000E-01   1.00800           0
      7600 MEMB     67       OSM      H18G     HAL3     0.900000E-01   1.00800           0
      7601 MEMB     67       OSM      H18H     HAL3     0.900000E-01   1.00800           0
      7602 MEMB     68       CHL1     C3       CRL1     0.140000       12.0110           0
      7603 MEMB     68       CHL1     H3       HGA1     0.900000E-01   1.00800           0
      7604 MEMB     68       CHL1     O3       OHL     -0.660000       15.9994           0
      7605 MEMB     68       CHL1     H3'      HOL      0.430000       1.00800           0
      7606 MEMB     68       CHL1     C4       CRL2    -0.180000       12.0110           0
      7607 MEMB     68       CHL1     H4A      HGA2     0.900000E-01   1.00800           0
      7608 MEMB     68       CHL1     H4B      HGA2     0.900000E-01   1.00800           0
      7609 MEMB     68       CHL1     C5       CEL1      0.00000       12.0110           0
      7610 MEMB     68       CHL1     C6       CEL1    -0.150000       12.0110           0
      7611 MEMB     68       CHL1     H6       HEL1     0.150000       1.00800           0
      7612 MEMB     68       CHL1     C7       CRL2    -0.180000       12.0110           0
      7613 MEMB     68       CHL1     H7A      HGA2     0.900000E-01   1.00800           0
      7614 MEMB     68       CHL1     H7B      HGA2     0.900000E-01   1.00800           0
      7615 MEMB     68       CHL1     C8       CRL1    -0.900000E-01   12.0110           0
      7616 MEMB     68       CHL1     H8       HGA1     0.900000E-01   1.00800           0
      7617 MEMB     68       CHL1     C14      CRL1    -0.900000E-01   12.0110           0
      7618 MEMB     68       CHL1     H14      HGA1     0.900000E-01   1.00800           0
      7619 MEMB     68       CHL1     C15      CRL2    -0.180000       12.0110           0
      7620 MEMB     68       CHL1     H15A     HGA2     0.900000E-01   1.00800           0
      7621 MEMB     68       CHL1     H15B     HGA2     0.900000E-01   1.00800           0
      7622 MEMB     68       CHL1     C16      CRL2    -0.180000       12.0110           0
      7623 MEMB     68       CHL1     H16A     HGA2     0.900000E-01   1.00800           0
      7624 MEMB     68       CHL1     H16B     HGA2     0.900000E-01   1.00800           0
      7625 MEMB     68       CHL1     C17      CRL1    -0.900000E-01   12.0110           0
      7626 MEMB     68       CHL1     H17      HGA1     0.900000E-01   1.00800           0
      7627 MEMB     68       CHL1     C13      CRL1      0.00000       12.0110           0
      7628 MEMB     68       CHL1     C18      CTL3    -0.270000       12.0110           0
      7629 MEMB     68       CHL1     H18A     HAL3     0.900000E-01   1.00800           0
      7630 MEMB     68       CHL1     H18B     HAL3     0.900000E-01   1.00800           0
      7631 MEMB     68       CHL1     H18C     HAL3     0.900000E-01   1.00800           0
      7632 MEMB     68       CHL1     C12      CRL2    -0.180000       12.0110           0
      7633 MEMB     68       CHL1     H12A     HGA2     0.900000E-01   1.00800           0
      7634 MEMB     68       CHL1     H12B     HGA2     0.900000E-01   1.00800           0
      7635 MEMB     68       CHL1     C11      CRL2    -0.180000       12.0110           0
      7636 MEMB     68       CHL1     H11A     HGA2     0.900000E-01   1.00800           0
      7637 MEMB     68       CHL1     H11B     HGA2     0.900000E-01   1.00800           0
      7638 MEMB     68       CHL1     C9       CRL1    -0.900000E-01   12.0110           0
      7639 MEMB     68       CHL1     H9       HGA1     0.900000E-01   1.00800           0
      7640 MEMB     68       CHL1     C10      CRL1      0.00000       12.0110           0
      7641 MEMB     68       CHL1     C19      CTL3    -0.270000       12.0110           0
      7642 MEMB     68       CHL1     H19A     HAL3     0.900000E-01   1.00800           0
      7643 MEMB     68       CHL1     H19B     HAL3     0.900000E-01   1.00800           0
      7644 MEMB     68       CHL1     H19C     HAL3     0.900000E-01   1.00800           0
      7645 MEMB     68       CHL1     C1       CRL2    -0.180000       12.0110           0
      7646 MEMB     68       CHL1     H1A      HGA2     0.900000E-01   1.00800           0
      7647 MEMB     68       CHL1     H1B      HGA2     0.900000E-01   1.00800           0
      7648 MEMB     68       CHL1     C2       CRL2    -0.180000       12.0110           0
      7649 MEMB     68       CHL1     H2A      HGA2     0.900000E-01   1.00800           0
      7650 MEMB     68       CHL1     H2B      HGA2     0.900000E-01   1.00800           0
      7651 MEMB     68       CHL1     C20      CTL1    -0.900000E-01   12.0110           0
      7652 MEMB     68       CHL1     H20      HAL1     0.900000E-01   1.00800           0
      7653 MEMB     68       CHL1     C21      CTL3    -0.270000       12.0110           0
      7654 MEMB     68       CHL1     H21A     HAL3     0.900000E-01   1.00800           0
      7655 MEMB     68       CHL1     H21B     HAL3     0.900000E-01   1.00800           0
      7656 MEMB     68       CHL1     H21C     HAL3     0.900000E-01   1.00800           0
      7657 MEMB     68       CHL1     C22      CTL2    -0.180000       12.0110           0
      7658 MEMB     68       CHL1     H22A     HAL2     0.900000E-01   1.00800           0
      7659 MEMB     68       CHL1     H22B     HAL2     0.900000E-01   1.00800           0
      7660 MEMB     68       CHL1     C23      CTL2    -0.180000       12.0110           0
      7661 MEMB     68       CHL1     H23A     HAL2     0.900000E-01   1.00800           0
      7662 MEMB     68       CHL1     H23B     HAL2     0.900000E-01   1.00800           0
      7663 MEMB     68       CHL1     C24      CTL2    -0.180000       12.0110           0
      7664 MEMB     68       CHL1     H24A     HAL2     0.900000E-01   1.00800           0
      7665 MEMB     68       CHL1     H24B     HAL2     0.900000E-01   1.00800           0
      7666 MEMB     68       CHL1     C25      CTL1    -0.900000E-01   12.0110           0
      7667 MEMB     68       CHL1     H25      HAL1     0.900000E-01   1.00800           0
      7668 MEMB     68       CHL1     C26      CTL3    -0.270000       12.0110           0
      7669 MEMB     68       CHL1     H26A     HAL3     0.900000E-01   1.00800           0
      7670 MEMB     68       CHL1     H26B     HAL3     0.900000E-01   1.00800           0
      7671 MEMB     68       CHL1     H26C     HAL3     0.900000E-01   1.00800           0
      7672 MEMB     68       CHL1     C27      CTL3    -0.270000       12.0110           0
      7673 MEMB     68       CHL1     H27A     HAL3     0.900000E-01   1.00800           0
      7674 MEMB     68       CHL1     H27B     HAL3     0.900000E-01   1.00800           0
      7675 MEMB     68       CHL1     H27C     HAL3     0.900000E-01   1.00800           0
      7676 MEMB     69       SAPC     N        NTL     -0.600000       14.0070           0
      7677 MEMB     69       SAPC     C12      CTL2    -0.100000       12.0110           0
      7678 MEMB     69       SAPC     H12A     HL       0.250000       1.00800           0
      7679 MEMB     69       SAPC     H12B     HL       0.250000       1.00800           0
      7680 MEMB     69       SAPC     C13      CTL5    -0.350000       12.0110           0
      7681 MEMB     69       SAPC     H13A     HL       0.250000       1.00800           0
      7682 MEMB     69       SAPC     H13B     HL       0.250000       1.00800           0
      7683 MEMB     69       SAPC     H13C     HL       0.250000       1.00800           0
      7684 MEMB     69       SAPC     C14      CTL5    -0.350000       12.0110           0
      7685 MEMB     69       SAPC     H14A     HL       0.250000       1.00800           0
      7686 MEMB     69       SAPC     H14B     HL       0.250000       1.00800           0
      7687 MEMB     69       SAPC     H14C     HL       0.250000       1.00800           0
      7688 MEMB     69       SAPC     C15      CTL5    -0.350000       12.0110           0
      7689 MEMB     69       SAPC     H15A     HL       0.250000       1.00800           0
      7690 MEMB     69       SAPC     H15B     HL       0.250000       1.00800           0
      7691 MEMB     69       SAPC     H15C     HL       0.250000       1.00800           0
      7692 MEMB     69       SAPC     C11      CTL2    -0.800000E-01   12.0110           0
      7693 MEMB     69       SAPC     H11A     HAL2     0.900000E-01   1.00800           0
      7694 MEMB     69       SAPC     H11B     HAL2     0.900000E-01   1.00800           0
      7695 MEMB     69       SAPC     P        PL        1.50000       30.9740           0
      7696 MEMB     69       SAPC     O13      O2L     -0.780000       15.9994           0
      7697 MEMB     69       SAPC     O14      O2L     -0.780000       15.9994           0
      7698 MEMB     69       SAPC     O12      OSLP    -0.570000       15.9994           0
      7699 MEMB     69       SAPC     O11      OSLP    -0.570000       15.9994           0
      7700 MEMB     69       SAPC     C1       CTL2    -0.800000E-01   12.0110           0
      7701 MEMB     69       SAPC     HA       HAL2     0.900000E-01   1.00800           0
      7702 MEMB     69       SAPC     HB       HAL2     0.900000E-01   1.00800           0
      7703 MEMB     69       SAPC     C2       CTL1     0.170000       12.0110           0
      7704 MEMB     69       SAPC     HS       HAL1     0.900000E-01   1.00800           0
      7705 MEMB     69       SAPC     O21      OSL     -0.490000       15.9994           0
      7706 MEMB     69       SAPC     C21      CL       0.900000       12.0110           0
      7707 MEMB     69       SAPC     O22      OBL     -0.630000       15.9994           0
      7708 MEMB     69       SAPC     C22      CTL2    -0.220000       12.0110           0
      7709 MEMB     69       SAPC     H2R      HAL2     0.900000E-01   1.00800           0
      7710 MEMB     69       SAPC     H2S      HAL2     0.900000E-01   1.00800           0
      7711 MEMB     69       SAPC     C3       CTL2     0.800000E-01   12.0110           0
      7712 MEMB     69       SAPC     HX       HAL2     0.900000E-01   1.00800           0
      7713 MEMB     69       SAPC     HY       HAL2     0.900000E-01   1.00800           0
      7714 MEMB     69       SAPC     O31      OSL     -0.490000       15.9994           0
      7715 MEMB     69       SAPC     C31      CL       0.900000       12.0110           0
      7716 MEMB     69       SAPC     O32      OBL     -0.630000       15.9994           0
      7717 MEMB     69       SAPC     C32      CTL2    -0.220000       12.0110           0
      7718 MEMB     69       SAPC     H2X      HAL2     0.900000E-01   1.00800           0
      7719 MEMB     69       SAPC     H2Y      HAL2     0.900000E-01   1.00800           0
      7720 MEMB     69       SAPC     C23      CTL2    -0.180000       12.0110           0
      7721 MEMB     69       SAPC     H3R      HAL2     0.900000E-01   1.00800           0
      7722 MEMB     69       SAPC     H3S      HAL2     0.900000E-01   1.00800           0
      7723 MEMB     69       SAPC     C24      CTL2    -0.180000       12.0110           0
      7724 MEMB     69       SAPC     H4R      HAL2     0.900000E-01   1.00800           0
      7725 MEMB     69       SAPC     H4S      HAL2     0.900000E-01   1.00800           0
      7726 MEMB     69       SAPC     C25      CEL1    -0.150000       12.0110           0
      7727 MEMB     69       SAPC     H5R      HEL1     0.150000       1.00800           0
      7728 MEMB     69       SAPC     C26      CEL1    -0.150000       12.0110           0
      7729 MEMB     69       SAPC     H6R      HEL1     0.150000       1.00800           0
      7730 MEMB     69       SAPC     C27      CTL2    -0.180000       12.0110           0
      7731 MEMB     69       SAPC     H7R      HAL2     0.900000E-01   1.00800           0
      7732 MEMB     69       SAPC     H7S      HAL2     0.900000E-01   1.00800           0
      7733 MEMB     69       SAPC     C28      CEL1    -0.150000       12.0110           0
      7734 MEMB     69       SAPC     H8R      HEL1     0.150000       1.00800           0
      7735 MEMB     69       SAPC     C29      CEL1    -0.150000       12.0110           0
      7736 MEMB     69       SAPC     H9R      HEL1     0.150000       1.00800           0
      7737 MEMB     69       SAPC     C210     CTL2    -0.180000       12.0110           0
      7738 MEMB     69       SAPC     H10R     HAL2     0.900000E-01   1.00800           0
      7739 MEMB     69       SAPC     H10S     HAL2     0.900000E-01   1.00800           0
      7740 MEMB     69       SAPC     C211     CEL1    -0.150000       12.0110           0
      7741 MEMB     69       SAPC     H11R     HEL1     0.150000       1.00800           0
      7742 MEMB     69       SAPC     C212     CEL1    -0.150000       12.0110           0
      7743 MEMB     69       SAPC     H12R     HEL1     0.150000       1.00800           0
      7744 MEMB     69       SAPC     C213     CTL2    -0.180000       12.0110           0
      7745 MEMB     69       SAPC     H13R     HAL2     0.900000E-01   1.00800           0
      7746 MEMB     69       SAPC     H13S     HAL2     0.900000E-01   1.00800           0
      7747 MEMB     69       SAPC     C214     CEL1    -0.150000       12.0110           0
      7748 MEMB     69       SAPC     H14R     HEL1     0.150000       1.00800           0
      7749 MEMB     69       SAPC     C215     CEL1    -0.150000       12.0110           0
      7750 MEMB     69       SAPC     H15R     HEL1     0.150000       1.00800           0
      7751 MEMB     69       SAPC     C216     CTL2    -0.180000       12.0110           0
      7752 MEMB     69       SAPC     H16R     HAL2     0.900000E-01   1.00800           0
      7753 MEMB     69       SAPC     H16S     HAL2     0.900000E-01   1.00800           0
      7754 MEMB     69       SAPC     C217     CTL2    -0.180000       12.0110           0
      7755 MEMB     69       SAPC     H17R     HAL2     0.900000E-01   1.00800           0
      7756 MEMB     69       SAPC     H17S     HAL2     0.900000E-01   1.00800           0
      7757 MEMB     69       SAPC     C218     CTL2    -0.270000       12.0110           0
      7758 MEMB     69       SAPC     H18R     HAL2     0.900000E-01   1.00800           0
      7759 MEMB     69       SAPC     H18S     HAL2     0.900000E-01   1.00800           0
      7760 MEMB     69       SAPC     C219     CTL2    -0.180000       12.0110           0
      7761 MEMB     69       SAPC     H19R     HAL2     0.900000E-01   1.00800           0
      7762 MEMB     69       SAPC     H19S     HAL2     0.900000E-01   1.00800           0
      7763 MEMB     69       SAPC     C220     CTL3    -0.180000       12.0110           0
      7764 MEMB     69       SAPC     H20R     HAL3     0.900000E-01   1.00800           0
      7765 MEMB     69       SAPC     H20S     HAL3     0.900000E-01   1.00800           0
      7766 MEMB     69       SAPC     H20T     HAL3     0.900000E-01   1.00800           0
      7767 MEMB     69       SAPC     C33      CTL2    -0.180000       12.0110           0
      7768 MEMB     69       SAPC     H3X      HAL2     0.900000E-01   1.00800           0
      7769 MEMB     69       SAPC     H3Y      HAL2     0.900000E-01   1.00800           0
      7770 MEMB     69       SAPC     C34      CTL2    -0.180000       12.0110           0
      7771 MEMB     69       SAPC     H4X      HAL2     0.900000E-01   1.00800           0
      7772 MEMB     69       SAPC     H4Y      HAL2     0.900000E-01   1.00800           0
      7773 MEMB     69       SAPC     C35      CTL2    -0.180000       12.0110           0
      7774 MEMB     69       SAPC     H5X      HAL2     0.900000E-01   1.00800           0
      7775 MEMB     69       SAPC     H5Y      HAL2     0.900000E-01   1.00800           0
      7776 MEMB     69       SAPC     C36      CTL2    -0.180000       12.0110           0
      7777 MEMB     69       SAPC     H6X      HAL2     0.900000E-01   1.00800           0
      7778 MEMB     69       SAPC     H6Y      HAL2     0.900000E-01   1.00800           0
      7779 MEMB     69       SAPC     C37      CTL2    -0.180000       12.0110           0
      7780 MEMB     69       SAPC     H7X      HAL2     0.900000E-01   1.00800           0
      7781 MEMB     69       SAPC     H7Y      HAL2     0.900000E-01   1.00800           0
      7782 MEMB     69       SAPC     C38      CTL2    -0.180000       12.0110           0
      7783 MEMB     69       SAPC     H8X      HAL2     0.900000E-01   1.00800           0
      7784 MEMB     69       SAPC     H8Y      HAL2     0.900000E-01   1.00800           0
      7785 MEMB     69       SAPC     C39      CTL2    -0.180000       12.0110           0
      7786 MEMB     69       SAPC     H9X      HAL2     0.900000E-01   1.00800           0
      7787 MEMB     69       SAPC     H9Y      HAL2     0.900000E-01   1.00800           0
      7788 MEMB     69       SAPC     C310     CTL2    -0.180000       12.0110           0
      7789 MEMB     69       SAPC     H10X     HAL2     0.900000E-01   1.00800           0
      7790 MEMB     69       SAPC     H10Y     HAL2     0.900000E-01   1.00800           0
      7791 MEMB     69       SAPC     C311     CTL2    -0.180000       12.0110           0
      7792 MEMB     69       SAPC     H11X     HAL2     0.900000E-01   1.00800           0
      7793 MEMB     69       SAPC     H11Y     HAL2     0.900000E-01   1.00800           0
      7794 MEMB     69       SAPC     C312     CTL2    -0.180000       12.0110           0
      7795 MEMB     69       SAPC     H12X     HAL2     0.900000E-01   1.00800           0
      7796 MEMB     69       SAPC     H12Y     HAL2     0.900000E-01   1.00800           0
      7797 MEMB     69       SAPC     C313     CTL2    -0.180000       12.0110           0
      7798 MEMB     69       SAPC     H13X     HAL2     0.900000E-01   1.00800           0
      7799 MEMB     69       SAPC     H13Y     HAL2     0.900000E-01   1.00800           0
      7800 MEMB     69       SAPC     C314     CTL2    -0.180000       12.0110           0
      7801 MEMB     69       SAPC     H14X     HAL2     0.900000E-01   1.00800           0
      7802 MEMB     69       SAPC     H14Y     HAL2     0.900000E-01   1.00800           0
      7803 MEMB     69       SAPC     C315     CTL2    -0.180000       12.0110           0
      7804 MEMB     69       SAPC     H15X     HAL2     0.900000E-01   1.00800           0
      7805 MEMB     69       SAPC     H15Y     HAL2     0.900000E-01   1.00800           0
      7806 MEMB     69       SAPC     C316     CTL2    -0.180000       12.0110           0
      7807 MEMB     69       SAPC     H16X     HAL2     0.900000E-01   1.00800           0
      7808 MEMB     69       SAPC     H16Y     HAL2     0.900000E-01   1.00800           0
      7809 MEMB     69       SAPC     C317     CTL2    -0.180000       12.0110           0
      7810 MEMB     69       SAPC     H17X     HAL2     0.900000E-01   1.00800           0
      7811 MEMB     69       SAPC     H17Y     HAL2     0.900000E-01   1.00800           0
      7812 MEMB     69       SAPC     C318     CTL3    -0.270000       12.0110           0
      7813 MEMB     69       SAPC     H18X     HAL3     0.900000E-01   1.00800           0
      7814 MEMB     69       SAPC     H18Y     HAL3     0.900000E-01   1.00800           0
      7815 MEMB     69       SAPC     H18Z     HAL3     0.900000E-01   1.00800           0
      7816 MEMB     70       SOPE     N        NH3L    -0.300000       14.0070           0
      7817 MEMB     70       SOPE     HN1      HCL      0.330000       1.00800           0
      7818 MEMB     70       SOPE     HN2      HCL      0.330000       1.00800           0
      7819 MEMB     70       SOPE     HN3      HCL      0.330000       1.00800           0
      7820 MEMB     70       SOPE     C12      CTL2     0.130000       12.0110           0
      7821 MEMB     70       SOPE     H12A     HAL2     0.900000E-01   1.00800           0
      7822 MEMB     70       SOPE     H12B     HAL2     0.900000E-01   1.00800           0
      7823 MEMB     70       SOPE     C11      CTL2    -0.800000E-01   12.0110           0
      7824 MEMB     70       SOPE     H11A     HAL2     0.900000E-01   1.00800           0
      7825 MEMB     70       SOPE     H11B     HAL2     0.900000E-01   1.00800           0
      7826 MEMB     70       SOPE     P        PL        1.50000       30.9740           0
      7827 MEMB     70       SOPE     O13      O2L     -0.780000       15.9994           0
      7828 MEMB     70       SOPE     O14      O2L     -0.780000       15.9994           0
      7829 MEMB     70       SOPE     O12      OSLP    -0.570000       15.9994           0
      7830 MEMB     70       SOPE     O11      OSLP    -0.570000       15.9994           0
      7831 MEMB     70       SOPE     C1       CTL2    -0.800000E-01   12.0110           0
      7832 MEMB     70       SOPE     HA       HAL2     0.900000E-01   1.00800           0
      7833 MEMB     70       SOPE     HB       HAL2     0.900000E-01   1.00800           0
      7834 MEMB     70       SOPE     C2       CTL1     0.170000       12.0110           0
      7835 MEMB     70       SOPE     HS       HAL1     0.900000E-01   1.00800           0
      7836 MEMB     70       SOPE     O21      OSL     -0.490000       15.9994           0
      7837 MEMB     70       SOPE     C21      CL       0.900000       12.0110           0
      7838 MEMB     70       SOPE     O22      OBL     -0.630000       15.9994           0
      7839 MEMB     70       SOPE     C22      CTL2    -0.220000       12.0110           0
      7840 MEMB     70       SOPE     H2R      HAL2     0.900000E-01   1.00800           0
      7841 MEMB     70       SOPE     H2S      HAL2     0.900000E-01   1.00800           0
      7842 MEMB     70       SOPE     C3       CTL2     0.800000E-01   12.0110           0
      7843 MEMB     70       SOPE     HX       HAL2     0.900000E-01   1.00800           0
      7844 MEMB     70       SOPE     HY       HAL2     0.900000E-01   1.00800           0
      7845 MEMB     70       SOPE     O31      OSL     -0.490000       15.9994           0
      7846 MEMB     70       SOPE     C31      CL       0.900000       12.0110           0
      7847 MEMB     70       SOPE     O32      OBL     -0.630000       15.9994           0
      7848 MEMB     70       SOPE     C32      CTL2    -0.220000       12.0110           0
      7849 MEMB     70       SOPE     H2X      HAL2     0.900000E-01   1.00800           0
      7850 MEMB     70       SOPE     H2Y      HAL2     0.900000E-01   1.00800           0
      7851 MEMB     70       SOPE     C23      CTL2    -0.180000       12.0110           0
      7852 MEMB     70       SOPE     H3R      HAL2     0.900000E-01   1.00800           0
      7853 MEMB     70       SOPE     H3S      HAL2     0.900000E-01   1.00800           0
      7854 MEMB     70       SOPE     C24      CTL2    -0.180000       12.0110           0
      7855 MEMB     70       SOPE     H4R      HAL2     0.900000E-01   1.00800           0
      7856 MEMB     70       SOPE     H4S      HAL2     0.900000E-01   1.00800           0
      7857 MEMB     70       SOPE     C25      CTL2    -0.180000       12.0110           0
      7858 MEMB     70       SOPE     H5R      HAL2     0.900000E-01   1.00800           0
      7859 MEMB     70       SOPE     H5S      HAL2     0.900000E-01   1.00800           0
      7860 MEMB     70       SOPE     C26      CTL2    -0.180000       12.0110           0
      7861 MEMB     70       SOPE     H6R      HAL2     0.900000E-01   1.00800           0
      7862 MEMB     70       SOPE     H6S      HAL2     0.900000E-01   1.00800           0
      7863 MEMB     70       SOPE     C27      CTL2    -0.180000       12.0110           0
      7864 MEMB     70       SOPE     H7R      HAL2     0.900000E-01   1.00800           0
      7865 MEMB     70       SOPE     H7S      HAL2     0.900000E-01   1.00800           0
      7866 MEMB     70       SOPE     C28      CTL2    -0.180000       12.0110           0
      7867 MEMB     70       SOPE     H8R      HAL2     0.900000E-01   1.00800           0
      7868 MEMB     70       SOPE     H8S      HAL2     0.900000E-01   1.00800           0
      7869 MEMB     70       SOPE     C29      CEL1    -0.150000       12.0110           0
      7870 MEMB     70       SOPE     H91      HEL1     0.150000       1.00800           0
      7871 MEMB     70       SOPE     C210     CEL1    -0.150000       12.0110           0
      7872 MEMB     70       SOPE     H101     HEL1     0.150000       1.00800           0
      7873 MEMB     70       SOPE     C211     CTL2    -0.180000       12.0110           0
      7874 MEMB     70       SOPE     H11R     HAL2     0.900000E-01   1.00800           0
      7875 MEMB     70       SOPE     H11S     HAL2     0.900000E-01   1.00800           0
      7876 MEMB     70       SOPE     C212     CTL2    -0.180000       12.0110           0
      7877 MEMB     70       SOPE     H12R     HAL2     0.900000E-01   1.00800           0
      7878 MEMB     70       SOPE     H12S     HAL2     0.900000E-01   1.00800           0
      7879 MEMB     70       SOPE     C213     CTL2    -0.180000       12.0110           0
      7880 MEMB     70       SOPE     H13R     HAL2     0.900000E-01   1.00800           0
      7881 MEMB     70       SOPE     H13S     HAL2     0.900000E-01   1.00800           0
      7882 MEMB     70       SOPE     C214     CTL2    -0.180000       12.0110           0
      7883 MEMB     70       SOPE     H14R     HAL2     0.900000E-01   1.00800           0
      7884 MEMB     70       SOPE     H14S     HAL2     0.900000E-01   1.00800           0
      7885 MEMB     70       SOPE     C215     CTL2    -0.180000       12.0110           0
      7886 MEMB     70       SOPE     H15R     HAL2     0.900000E-01   1.00800           0
      7887 MEMB     70       SOPE     H15S     HAL2     0.900000E-01   1.00800           0
      7888 MEMB     70       SOPE     C216     CTL2    -0.180000       12.0110           0
      7889 MEMB     70       SOPE     H16R     HAL2     0.900000E-01   1.00800           0
      7890 MEMB     70       SOPE     H16S     HAL2     0.900000E-01   1.00800           0
      7891 MEMB     70       SOPE     C217     CTL2    -0.180000       12.0110           0
      7892 MEMB     70       SOPE     H17R     HAL2     0.900000E-01   1.00800           0
      7893 MEMB     70       SOPE     H17S     HAL2     0.900000E-01   1.00800           0
      7894 MEMB     70       SOPE     C218     CTL3    -0.270000       12.0110           0
      7895 MEMB     70       SOPE     H18R     HAL3     0.900000E-01   1.00800           0
      7896 MEMB     70       SOPE     H18S     HAL3     0.900000E-01   1.00800           0
      7897 MEMB     70       SOPE     H18T     HAL3     0.900000E-01   1.00800           0
      7898 MEMB     70       SOPE     C33      CTL2    -0.180000       12.0110           0
      7899 MEMB     70       SOPE     H3X      HAL2     0.900000E-01   1.00800           0
      7900 MEMB     70       SOPE     H3Y      HAL2     0.900000E-01   1.00800           0
      7901 MEMB     70       SOPE     C34      CTL2    -0.180000       12.0110           0
      7902 MEMB     70       SOPE     H4X      HAL2     0.900000E-01   1.00800           0
      7903 MEMB     70       SOPE     H4Y      HAL2     0.900000E-01   1.00800           0
      7904 MEMB     70       SOPE     C35      CTL2    -0.180000       12.0110           0
      7905 MEMB     70       SOPE     H5X      HAL2     0.900000E-01   1.00800           0
      7906 MEMB     70       SOPE     H5Y      HAL2     0.900000E-01   1.00800           0
      7907 MEMB     70       SOPE     C36      CTL2    -0.180000       12.0110           0
      7908 MEMB     70       SOPE     H6X      HAL2     0.900000E-01   1.00800           0
      7909 MEMB     70       SOPE     H6Y      HAL2     0.900000E-01   1.00800           0
      7910 MEMB     70       SOPE     C37      CTL2    -0.180000       12.0110           0
      7911 MEMB     70       SOPE     H7X      HAL2     0.900000E-01   1.00800           0
      7912 MEMB     70       SOPE     H7Y      HAL2     0.900000E-01   1.00800           0
      7913 MEMB     70       SOPE     C38      CTL2    -0.180000       12.0110           0
      7914 MEMB     70       SOPE     H8X      HAL2     0.900000E-01   1.00800           0
      7915 MEMB     70       SOPE     H8Y      HAL2     0.900000E-01   1.00800           0
      7916 MEMB     70       SOPE     C39      CTL2    -0.180000       12.0110           0
      7917 MEMB     70       SOPE     H9X      HAL2     0.900000E-01   1.00800           0
      7918 MEMB     70       SOPE     H9Y      HAL2     0.900000E-01   1.00800           0
      7919 MEMB     70       SOPE     C310     CTL2    -0.180000       12.0110           0
      7920 MEMB     70       SOPE     H10X     HAL2     0.900000E-01   1.00800           0
      7921 MEMB     70       SOPE     H10Y     HAL2     0.900000E-01   1.00800           0
      7922 MEMB     70       SOPE     C311     CTL2    -0.180000       12.0110           0
      7923 MEMB     70       SOPE     H11X     HAL2     0.900000E-01   1.00800           0
      7924 MEMB     70       SOPE     H11Y     HAL2     0.900000E-01   1.00800           0
      7925 MEMB     70       SOPE     C312     CTL2    -0.180000       12.0110           0
      7926 MEMB     70       SOPE     H12X     HAL2     0.900000E-01   1.00800           0
      7927 MEMB     70       SOPE     H12Y     HAL2     0.900000E-01   1.00800           0
      7928 MEMB     70       SOPE     C313     CTL2    -0.180000       12.0110           0
      7929 MEMB     70       SOPE     H13X     HAL2     0.900000E-01   1.00800           0
      7930 MEMB     70       SOPE     H13Y     HAL2     0.900000E-01   1.00800           0
      7931 MEMB     70       SOPE     C314     CTL2    -0.180000       12.0110           0
      7932 MEMB     70       SOPE     H14X     HAL2     0.900000E-01   1.00800           0
      7933 MEMB     70       SOPE     H14Y     HAL2     0.900000E-01   1.00800           0
      7934 MEMB     70       SOPE     C315     CTL2    -0.180000       12.0110           0
      7935 MEMB     70       SOPE     H15X     HAL2     0.900000E-01   1.00800           0
      7936 MEMB     70       SOPE     H15Y     HAL2     0.900000E-01   1.00800           0
      7937 MEMB     70       SOPE     C316     CTL2    -0.180000       12.0110           0
      7938 MEMB     70       SOPE     H16X     HAL2     0.900000E-01   1.00800           0
      7939 MEMB     70       SOPE     H16Y     HAL2     0.900000E-01   1.00800           0
      7940 MEMB     70       SOPE     C317     CTL2    -0.180000       12.0110           0
      7941 MEMB     70       SOPE     H17X     HAL2     0.900000E-01   1.00800           0
      7942 MEMB     70       SOPE     H17Y     HAL2     0.900000E-01   1.00800           0
      7943 MEMB     70       SOPE     C318     CTL3    -0.270000       12.0110           0
      7944 MEMB     70       SOPE     H18X     HAL3     0.900000E-01   1.00800           0
      7945 MEMB     70       SOPE     H18Y     HAL3     0.900000E-01   1.00800           0
      7946 MEMB     70       SOPE     H18Z     HAL3     0.900000E-01   1.00800           0
      7947 MEMB     71       SAPE     N        NH3L    -0.300000       14.0070           0
      7948 MEMB     71       SAPE     HN1      HCL      0.330000       1.00800           0
      7949 MEMB     71       SAPE     HN2      HCL      0.330000       1.00800           0
      7950 MEMB     71       SAPE     HN3      HCL      0.330000       1.00800           0
      7951 MEMB     71       SAPE     C12      CTL2     0.130000       12.0110           0
      7952 MEMB     71       SAPE     H12A     HAL2     0.900000E-01   1.00800           0
      7953 MEMB     71       SAPE     H12B     HAL2     0.900000E-01   1.00800           0
      7954 MEMB     71       SAPE     C11      CTL2    -0.800000E-01   12.0110           0
      7955 MEMB     71       SAPE     H11A     HAL2     0.900000E-01   1.00800           0
      7956 MEMB     71       SAPE     H11B     HAL2     0.900000E-01   1.00800           0
      7957 MEMB     71       SAPE     P        PL        1.50000       30.9740           0
      7958 MEMB     71       SAPE     O13      O2L     -0.780000       15.9994           0
      7959 MEMB     71       SAPE     O14      O2L     -0.780000       15.9994           0
      7960 MEMB     71       SAPE     O12      OSLP    -0.570000       15.9994           0
      7961 MEMB     71       SAPE     O11      OSLP    -0.570000       15.9994           0
      7962 MEMB     71       SAPE     C1       CTL2    -0.800000E-01   12.0110           0
      7963 MEMB     71       SAPE     HA       HAL2     0.900000E-01   1.00800           0
      7964 MEMB     71       SAPE     HB       HAL2     0.900000E-01   1.00800           0
      7965 MEMB     71       SAPE     C2       CTL1     0.170000       12.0110           0
      7966 MEMB     71       SAPE     HS       HAL1     0.900000E-01   1.00800           0
      7967 MEMB     71       SAPE     O21      OSL     -0.490000       15.9994           0
      7968 MEMB     71       SAPE     C21      CL       0.900000       12.0110           0
      7969 MEMB     71       SAPE     O22      OBL     -0.630000       15.9994           0
      7970 MEMB     71       SAPE     C22      CTL2    -0.220000       12.0110           0
      7971 MEMB     71       SAPE     H2R      HAL2     0.900000E-01   1.00800           0
      7972 MEMB     71       SAPE     H2S      HAL2     0.900000E-01   1.00800           0
      7973 MEMB     71       SAPE     C3       CTL2     0.800000E-01   12.0110           0
      7974 MEMB     71       SAPE     HX       HAL2     0.900000E-01   1.00800           0
      7975 MEMB     71       SAPE     HY       HAL2     0.900000E-01   1.00800           0
      7976 MEMB     71       SAPE     O31      OSL     -0.490000       15.9994           0
      7977 MEMB     71       SAPE     C31      CL       0.900000       12.0110           0
      7978 MEMB     71       SAPE     O32      OBL     -0.630000       15.9994           0
      7979 MEMB     71       SAPE     C32      CTL2    -0.220000       12.0110           0
      7980 MEMB     71       SAPE     H2X      HAL2     0.900000E-01   1.00800           0
      7981 MEMB     71       SAPE     H2Y      HAL2     0.900000E-01   1.00800           0
      7982 MEMB     71       SAPE     C23      CTL2    -0.180000       12.0110           0
      7983 MEMB     71       SAPE     H3R      HAL2     0.900000E-01   1.00800           0
      7984 MEMB     71       SAPE     H3S      HAL2     0.900000E-01   1.00800           0
      7985 MEMB     71       SAPE     C24      CTL2    -0.180000       12.0110           0
      7986 MEMB     71       SAPE     H4R      HAL2     0.900000E-01   1.00800           0
      7987 MEMB     71       SAPE     H4S      HAL2     0.900000E-01   1.00800           0
      7988 MEMB     71       SAPE     C25      CEL1    -0.150000       12.0110           0
      7989 MEMB     71       SAPE     H5R      HEL1     0.150000       1.00800           0
      7990 MEMB     71       SAPE     C26      CEL1    -0.150000       12.0110           0
      7991 MEMB     71       SAPE     H6R      HEL1     0.150000       1.00800           0
      7992 MEMB     71       SAPE     C27      CTL2    -0.180000       12.0110           0
      7993 MEMB     71       SAPE     H7R      HAL2     0.900000E-01   1.00800           0
      7994 MEMB     71       SAPE     H7S      HAL2     0.900000E-01   1.00800           0
      7995 MEMB     71       SAPE     C28      CEL1    -0.150000       12.0110           0
      7996 MEMB     71       SAPE     H8R      HEL1     0.150000       1.00800           0
      7997 MEMB     71       SAPE     C29      CEL1    -0.150000       12.0110           0
      7998 MEMB     71       SAPE     H9R      HEL1     0.150000       1.00800           0
      7999 MEMB     71       SAPE     C210     CTL2    -0.180000       12.0110           0
      8000 MEMB     71       SAPE     H10R     HAL2     0.900000E-01   1.00800           0
      8001 MEMB     71       SAPE     H10S     HAL2     0.900000E-01   1.00800           0
      8002 MEMB     71       SAPE     C211     CEL1    -0.150000       12.0110           0
      8003 MEMB     71       SAPE     H11R     HEL1     0.150000       1.00800           0
      8004 MEMB     71       SAPE     C212     CEL1    -0.150000       12.0110           0
      8005 MEMB     71       SAPE     H12R     HEL1     0.150000       1.00800           0
      8006 MEMB     71       SAPE     C213     CTL2    -0.180000       12.0110           0
      8007 MEMB     71       SAPE     H13R     HAL2     0.900000E-01   1.00800           0
      8008 MEMB     71       SAPE     H13S     HAL2     0.900000E-01   1.00800           0
      8009 MEMB     71       SAPE     C214     CEL1    -0.150000       12.0110           0
      8010 MEMB     71       SAPE     H14R     HEL1     0.150000       1.00800           0
      8011 MEMB     71       SAPE     C215     CEL1    -0.150000       12.0110           0
      8012 MEMB     71       SAPE     H15R     HEL1     0.150000       1.00800           0
      8013 MEMB     71       SAPE     C216     CTL2    -0.180000       12.0110           0
      8014 MEMB     71       SAPE     H16R     HAL2     0.900000E-01   1.00800           0
      8015 MEMB     71       SAPE     H16S     HAL2     0.900000E-01   1.00800           0
      8016 MEMB     71       SAPE     C217     CTL2    -0.180000       12.0110           0
      8017 MEMB     71       SAPE     H17R     HAL2     0.900000E-01   1.00800           0
      8018 MEMB     71       SAPE     H17S     HAL2     0.900000E-01   1.00800           0
      8019 MEMB     71       SAPE     C218     CTL2    -0.180000       12.0110           0
      8020 MEMB     71       SAPE     H18R     HAL2     0.900000E-01   1.00800           0
      8021 MEMB     71       SAPE     H18S     HAL2     0.900000E-01   1.00800           0
      8022 MEMB     71       SAPE     C219     CTL2    -0.180000       12.0110           0
      8023 MEMB     71       SAPE     H19R     HAL2     0.900000E-01   1.00800           0
      8024 MEMB     71       SAPE     H19S     HAL2     0.900000E-01   1.00800           0
      8025 MEMB     71       SAPE     C220     CTL3    -0.270000       12.0110           0
      8026 MEMB     71       SAPE     H20R     HAL3     0.900000E-01   1.00800           0
      8027 MEMB     71       SAPE     H20S     HAL3     0.900000E-01   1.00800           0
      8028 MEMB     71       SAPE     H20T     HAL3     0.900000E-01   1.00800           0
      8029 MEMB     71       SAPE     C33      CTL2    -0.180000       12.0110           0
      8030 MEMB     71       SAPE     H3X      HAL2     0.900000E-01   1.00800           0
      8031 MEMB     71       SAPE     H3Y      HAL2     0.900000E-01   1.00800           0
      8032 MEMB     71       SAPE     C34      CTL2    -0.180000       12.0110           0
      8033 MEMB     71       SAPE     H4X      HAL2     0.900000E-01   1.00800           0
      8034 MEMB     71       SAPE     H4Y      HAL2     0.900000E-01   1.00800           0
      8035 MEMB     71       SAPE     C35      CTL2    -0.180000       12.0110           0
      8036 MEMB     71       SAPE     H5X      HAL2     0.900000E-01   1.00800           0
      8037 MEMB     71       SAPE     H5Y      HAL2     0.900000E-01   1.00800           0
      8038 MEMB     71       SAPE     C36      CTL2    -0.180000       12.0110           0
      8039 MEMB     71       SAPE     H6X      HAL2     0.900000E-01   1.00800           0
      8040 MEMB     71       SAPE     H6Y      HAL2     0.900000E-01   1.00800           0
      8041 MEMB     71       SAPE     C37      CTL2    -0.180000       12.0110           0
      8042 MEMB     71       SAPE     H7X      HAL2     0.900000E-01   1.00800           0
      8043 MEMB     71       SAPE     H7Y      HAL2     0.900000E-01   1.00800           0
      8044 MEMB     71       SAPE     C38      CTL2    -0.180000       12.0110           0
      8045 MEMB     71       SAPE     H8X      HAL2     0.900000E-01   1.00800           0
      8046 MEMB     71       SAPE     H8Y      HAL2     0.900000E-01   1.00800           0
      8047 MEMB     71       SAPE     C39      CTL2    -0.180000       12.0110           0
      8048 MEMB     71       SAPE     H9X      HAL2     0.900000E-01   1.00800           0
      8049 MEMB     71       SAPE     H9Y      HAL2     0.900000E-01   1.00800           0
      8050 MEMB     71       SAPE     C310     CTL2    -0.180000       12.0110           0
      8051 MEMB     71       SAPE     H10X     HAL2     0.900000E-01   1.00800           0
      8052 MEMB     71       SAPE     H10Y     HAL2     0.900000E-01   1.00800           0
      8053 MEMB     71       SAPE     C311     CTL2    -0.180000       12.0110           0
      8054 MEMB     71       SAPE     H11X     HAL2     0.900000E-01   1.00800           0
      8055 MEMB     71       SAPE     H11Y     HAL2     0.900000E-01   1.00800           0
      8056 MEMB     71       SAPE     C312     CTL2    -0.180000       12.0110           0
      8057 MEMB     71       SAPE     H12X     HAL2     0.900000E-01   1.00800           0
      8058 MEMB     71       SAPE     H12Y     HAL2     0.900000E-01   1.00800           0
      8059 MEMB     71       SAPE     C313     CTL2    -0.180000       12.0110           0
      8060 MEMB     71       SAPE     H13X     HAL2     0.900000E-01   1.00800           0
      8061 MEMB     71       SAPE     H13Y     HAL2     0.900000E-01   1.00800           0
      8062 MEMB     71       SAPE     C314     CTL2    -0.180000       12.0110           0
      8063 MEMB     71       SAPE     H14X     HAL2     0.900000E-01   1.00800           0
      8064 MEMB     71       SAPE     H14Y     HAL2     0.900000E-01   1.00800           0
      8065 MEMB     71       SAPE     C315     CTL2    -0.180000       12.0110           0
      8066 MEMB     71       SAPE     H15X     HAL2     0.900000E-01   1.00800           0
      8067 MEMB     71       SAPE     H15Y     HAL2     0.900000E-01   1.00800           0
      8068 MEMB     71       SAPE     C316     CTL2    -0.180000       12.0110           0
      8069 MEMB     71       SAPE     H16X     HAL2     0.900000E-01   1.00800           0
      8070 MEMB     71       SAPE     H16Y     HAL2     0.900000E-01   1.00800           0
      8071 MEMB     71       SAPE     C317     CTL2    -0.180000       12.0110           0
      8072 MEMB     71       SAPE     H17X     HAL2     0.900000E-01   1.00800           0
      8073 MEMB     71       SAPE     H17Y     HAL2     0.900000E-01   1.00800           0
      8074 MEMB     71       SAPE     C318     CTL3    -0.270000       12.0110           0
      8075 MEMB     71       SAPE     H18X     HAL3     0.900000E-01   1.00800           0
      8076 MEMB     71       SAPE     H18Y     HAL3     0.900000E-01   1.00800           0
      8077 MEMB     71       SAPE     H18Z     HAL3     0.900000E-01   1.00800           0
      8078 MEMB     72       SLPC     N        NTL     -0.600000       14.0070           0
      8079 MEMB     72       SLPC     C13      CTL5    -0.350000       12.0110           0
      8080 MEMB     72       SLPC     H13A     HL       0.250000       1.00800           0
      8081 MEMB     72       SLPC     H13B     HL       0.250000       1.00800           0
      8082 MEMB     72       SLPC     H13C     HL       0.250000       1.00800           0
      8083 MEMB     72       SLPC     C14      CTL5    -0.350000       12.0110           0
      8084 MEMB     72       SLPC     H14A     HL       0.250000       1.00800           0
      8085 MEMB     72       SLPC     H14B     HL       0.250000       1.00800           0
      8086 MEMB     72       SLPC     H14C     HL       0.250000       1.00800           0
      8087 MEMB     72       SLPC     C15      CTL5    -0.350000       12.0110           0
      8088 MEMB     72       SLPC     H15A     HL       0.250000       1.00800           0
      8089 MEMB     72       SLPC     H15B     HL       0.250000       1.00800           0
      8090 MEMB     72       SLPC     H15C     HL       0.250000       1.00800           0
      8091 MEMB     72       SLPC     C12      CTL2    -0.100000       12.0110           0
      8092 MEMB     72       SLPC     H12A     HL       0.250000       1.00800           0
      8093 MEMB     72       SLPC     H12B     HL       0.250000       1.00800           0
      8094 MEMB     72       SLPC     C11      CTL2    -0.800000E-01   12.0110           0
      8095 MEMB     72       SLPC     H11A     HAL2     0.900000E-01   1.00800           0
      8096 MEMB     72       SLPC     H11B     HAL2     0.900000E-01   1.00800           0
      8097 MEMB     72       SLPC     P        PL        1.50000       30.9740           0
      8098 MEMB     72       SLPC     O13      O2L     -0.780000       15.9994           0
      8099 MEMB     72       SLPC     O14      O2L     -0.780000       15.9994           0
      8100 MEMB     72       SLPC     O12      OSLP    -0.570000       15.9994           0
      8101 MEMB     72       SLPC     O11      OSLP    -0.570000       15.9994           0
      8102 MEMB     72       SLPC     C1       CTL2    -0.800000E-01   12.0110           0
      8103 MEMB     72       SLPC     HA       HAL2     0.900000E-01   1.00800           0
      8104 MEMB     72       SLPC     HB       HAL2     0.900000E-01   1.00800           0
      8105 MEMB     72       SLPC     C2       CTL1     0.170000       12.0110           0
      8106 MEMB     72       SLPC     HS       HAL1     0.900000E-01   1.00800           0
      8107 MEMB     72       SLPC     O21      OSL     -0.490000       15.9994           0
      8108 MEMB     72       SLPC     C21      CL       0.900000       12.0110           0
      8109 MEMB     72       SLPC     O22      OBL     -0.630000       15.9994           0
      8110 MEMB     72       SLPC     C22      CTL2    -0.220000       12.0110           0
      8111 MEMB     72       SLPC     H2R      HAL2     0.900000E-01   1.00800           0
      8112 MEMB     72       SLPC     H2S      HAL2     0.900000E-01   1.00800           0
      8113 MEMB     72       SLPC     C3       CTL2     0.800000E-01   12.0110           0
      8114 MEMB     72       SLPC     HX       HAL2     0.900000E-01   1.00800           0
      8115 MEMB     72       SLPC     HY       HAL2     0.900000E-01   1.00800           0
      8116 MEMB     72       SLPC     O31      OSL     -0.490000       15.9994           0
      8117 MEMB     72       SLPC     C31      CL       0.900000       12.0110           0
      8118 MEMB     72       SLPC     O32      OBL     -0.630000       15.9994           0
      8119 MEMB     72       SLPC     C32      CTL2    -0.220000       12.0110           0
      8120 MEMB     72       SLPC     H2X      HAL2     0.900000E-01   1.00800           0
      8121 MEMB     72       SLPC     H2Y      HAL2     0.900000E-01   1.00800           0
      8122 MEMB     72       SLPC     C23      CTL2    -0.180000       12.0110           0
      8123 MEMB     72       SLPC     H3R      HAL2     0.900000E-01   1.00800           0
      8124 MEMB     72       SLPC     H3S      HAL2     0.900000E-01   1.00800           0
      8125 MEMB     72       SLPC     C24      CTL2    -0.180000       12.0110           0
      8126 MEMB     72       SLPC     H4R      HAL2     0.900000E-01   1.00800           0
      8127 MEMB     72       SLPC     H4S      HAL2     0.900000E-01   1.00800           0
      8128 MEMB     72       SLPC     C25      CTL2    -0.180000       12.0110           0
      8129 MEMB     72       SLPC     H5R      HAL2     0.900000E-01   1.00800           0
      8130 MEMB     72       SLPC     H5S      HAL2     0.900000E-01   1.00800           0
      8131 MEMB     72       SLPC     C26      CTL2    -0.180000       12.0110           0
      8132 MEMB     72       SLPC     H6R      HAL2     0.900000E-01   1.00800           0
      8133 MEMB     72       SLPC     H6S      HAL2     0.900000E-01   1.00800           0
      8134 MEMB     72       SLPC     C27      CTL2    -0.180000       12.0110           0
      8135 MEMB     72       SLPC     H7R      HAL2     0.900000E-01   1.00800           0
      8136 MEMB     72       SLPC     H7S      HAL2     0.900000E-01   1.00800           0
      8137 MEMB     72       SLPC     C28      CTL2    -0.180000       12.0110           0
      8138 MEMB     72       SLPC     H8R      HAL2     0.900000E-01   1.00800           0
      8139 MEMB     72       SLPC     H8S      HAL2     0.900000E-01   1.00800           0
      8140 MEMB     72       SLPC     C29      CEL1    -0.150000       12.0110           0
      8141 MEMB     72       SLPC     H9R      HEL1     0.150000       1.00800           0
      8142 MEMB     72       SLPC     C210     CEL1    -0.150000       12.0110           0
      8143 MEMB     72       SLPC     H10R     HEL1     0.150000       1.00800           0
      8144 MEMB     72       SLPC     C211     CTL2    -0.180000       12.0110           0
      8145 MEMB     72       SLPC     H11R     HAL2     0.900000E-01   1.00800           0
      8146 MEMB     72       SLPC     H11S     HAL2     0.900000E-01   1.00800           0
      8147 MEMB     72       SLPC     C212     CEL1    -0.150000       12.0110           0
      8148 MEMB     72       SLPC     H12R     HEL1     0.150000       1.00800           0
      8149 MEMB     72       SLPC     C213     CEL1    -0.150000       12.0110           0
      8150 MEMB     72       SLPC     H13R     HEL1     0.150000       1.00800           0
      8151 MEMB     72       SLPC     C214     CTL2    -0.180000       12.0110           0
      8152 MEMB     72       SLPC     H14R     HAL2     0.900000E-01   1.00800           0
      8153 MEMB     72       SLPC     H14S     HAL2     0.900000E-01   1.00800           0
      8154 MEMB     72       SLPC     C215     CTL2    -0.180000       12.0110           0
      8155 MEMB     72       SLPC     H15R     HAL2     0.900000E-01   1.00800           0
      8156 MEMB     72       SLPC     H15S     HAL2     0.900000E-01   1.00800           0
      8157 MEMB     72       SLPC     C216     CTL2    -0.180000       12.0110           0
      8158 MEMB     72       SLPC     H16R     HAL2     0.900000E-01   1.00800           0
      8159 MEMB     72       SLPC     H16S     HAL2     0.900000E-01   1.00800           0
      8160 MEMB     72       SLPC     C217     CTL2    -0.180000       12.0110           0
      8161 MEMB     72       SLPC     H17R     HAL2     0.900000E-01   1.00800           0
      8162 MEMB     72       SLPC     H17S     HAL2     0.900000E-01   1.00800           0
      8163 MEMB     72       SLPC     C218     CTL3    -0.270000       12.0110           0
      8164 MEMB     72       SLPC     H18R     HAL3     0.900000E-01   1.00800           0
      8165 MEMB     72       SLPC     H18S     HAL3     0.900000E-01   1.00800           0
      8166 MEMB     72       SLPC     H18T     HAL3     0.900000E-01   1.00800           0
      8167 MEMB     72       SLPC     C33      CTL2    -0.180000       12.0110           0
      8168 MEMB     72       SLPC     H3X      HAL2     0.900000E-01   1.00800           0
      8169 MEMB     72       SLPC     H3Y      HAL2     0.900000E-01   1.00800           0
      8170 MEMB     72       SLPC     C34      CTL2    -0.180000       12.0110           0
      8171 MEMB     72       SLPC     H4X      HAL2     0.900000E-01   1.00800           0
      8172 MEMB     72       SLPC     H4Y      HAL2     0.900000E-01   1.00800           0
      8173 MEMB     72       SLPC     C35      CTL2    -0.180000       12.0110           0
      8174 MEMB     72       SLPC     H5X      HAL2     0.900000E-01   1.00800           0
      8175 MEMB     72       SLPC     H5Y      HAL2     0.900000E-01   1.00800           0
      8176 MEMB     72       SLPC     C36      CTL2    -0.180000       12.0110           0
      8177 MEMB     72       SLPC     H6X      HAL2     0.900000E-01   1.00800           0
      8178 MEMB     72       SLPC     H6Y      HAL2     0.900000E-01   1.00800           0
      8179 MEMB     72       SLPC     C37      CTL2    -0.180000       12.0110           0
      8180 MEMB     72       SLPC     H7X      HAL2     0.900000E-01   1.00800           0
      8181 MEMB     72       SLPC     H7Y      HAL2     0.900000E-01   1.00800           0
      8182 MEMB     72       SLPC     C38      CTL2    -0.180000       12.0110           0
      8183 MEMB     72       SLPC     H8X      HAL2     0.900000E-01   1.00800           0
      8184 MEMB     72       SLPC     H8Y      HAL2     0.900000E-01   1.00800           0
      8185 MEMB     72       SLPC     C39      CTL2    -0.180000       12.0110           0
      8186 MEMB     72       SLPC     H9X      HAL2     0.900000E-01   1.00800           0
      8187 MEMB     72       SLPC     H9Y      HAL2     0.900000E-01   1.00800           0
      8188 MEMB     72       SLPC     C310     CTL2    -0.180000       12.0110           0
      8189 MEMB     72       SLPC     H10X     HAL2     0.900000E-01   1.00800           0
      8190 MEMB     72       SLPC     H10Y     HAL2     0.900000E-01   1.00800           0
      8191 MEMB     72       SLPC     C311     CTL2    -0.180000       12.0110           0
      8192 MEMB     72       SLPC     H11X     HAL2     0.900000E-01   1.00800           0
      8193 MEMB     72       SLPC     H11Y     HAL2     0.900000E-01   1.00800           0
      8194 MEMB     72       SLPC     C312     CTL2    -0.180000       12.0110           0
      8195 MEMB     72       SLPC     H12X     HAL2     0.900000E-01   1.00800           0
      8196 MEMB     72       SLPC     H12Y     HAL2     0.900000E-01   1.00800           0
      8197 MEMB     72       SLPC     C313     CTL2    -0.180000       12.0110           0
      8198 MEMB     72       SLPC     H13X     HAL2     0.900000E-01   1.00800           0
      8199 MEMB     72       SLPC     H13Y     HAL2     0.900000E-01   1.00800           0
      8200 MEMB     72       SLPC     C314     CTL2    -0.180000       12.0110           0
      8201 MEMB     72       SLPC     H14X     HAL2     0.900000E-01   1.00800           0
      8202 MEMB     72       SLPC     H14Y     HAL2     0.900000E-01   1.00800           0
      8203 MEMB     72       SLPC     C315     CTL2    -0.180000       12.0110           0
      8204 MEMB     72       SLPC     H15X     HAL2     0.900000E-01   1.00800           0
      8205 MEMB     72       SLPC     H15Y     HAL2     0.900000E-01   1.00800           0
      8206 MEMB     72       SLPC     C316     CTL2    -0.180000       12.0110           0
      8207 MEMB     72       SLPC     H16X     HAL2     0.900000E-01   1.00800           0
      8208 MEMB     72       SLPC     H16Y     HAL2     0.900000E-01   1.00800           0
      8209 MEMB     72       SLPC     C317     CTL2    -0.180000       12.0110           0
      8210 MEMB     72       SLPC     H17X     HAL2     0.900000E-01   1.00800           0
      8211 MEMB     72       SLPC     H17Y     HAL2     0.900000E-01   1.00800           0
      8212 MEMB     72       SLPC     C318     CTL3    -0.270000       12.0110           0
      8213 MEMB     72       SLPC     H18X     HAL3     0.900000E-01   1.00800           0
      8214 MEMB     72       SLPC     H18Y     HAL3     0.900000E-01   1.00800           0
      8215 MEMB     72       SLPC     H18Z     HAL3     0.900000E-01   1.00800           0
      8216 MEMB     73       SLPC     N        NTL     -0.600000       14.0070           0
      8217 MEMB     73       SLPC     C13      CTL5    -0.350000       12.0110           0
      8218 MEMB     73       SLPC     H13A     HL       0.250000       1.00800           0
      8219 MEMB     73       SLPC     H13B     HL       0.250000       1.00800           0
      8220 MEMB     73       SLPC     H13C     HL       0.250000       1.00800           0
      8221 MEMB     73       SLPC     C14      CTL5    -0.350000       12.0110           0
      8222 MEMB     73       SLPC     H14A     HL       0.250000       1.00800           0
      8223 MEMB     73       SLPC     H14B     HL       0.250000       1.00800           0
      8224 MEMB     73       SLPC     H14C     HL       0.250000       1.00800           0
      8225 MEMB     73       SLPC     C15      CTL5    -0.350000       12.0110           0
      8226 MEMB     73       SLPC     H15A     HL       0.250000       1.00800           0
      8227 MEMB     73       SLPC     H15B     HL       0.250000       1.00800           0
      8228 MEMB     73       SLPC     H15C     HL       0.250000       1.00800           0
      8229 MEMB     73       SLPC     C12      CTL2    -0.100000       12.0110           0
      8230 MEMB     73       SLPC     H12A     HL       0.250000       1.00800           0
      8231 MEMB     73       SLPC     H12B     HL       0.250000       1.00800           0
      8232 MEMB     73       SLPC     C11      CTL2    -0.800000E-01   12.0110           0
      8233 MEMB     73       SLPC     H11A     HAL2     0.900000E-01   1.00800           0
      8234 MEMB     73       SLPC     H11B     HAL2     0.900000E-01   1.00800           0
      8235 MEMB     73       SLPC     P        PL        1.50000       30.9740           0
      8236 MEMB     73       SLPC     O13      O2L     -0.780000       15.9994           0
      8237 MEMB     73       SLPC     O14      O2L     -0.780000       15.9994           0
      8238 MEMB     73       SLPC     O12      OSLP    -0.570000       15.9994           0
      8239 MEMB     73       SLPC     O11      OSLP    -0.570000       15.9994           0
      8240 MEMB     73       SLPC     C1       CTL2    -0.800000E-01   12.0110           0
      8241 MEMB     73       SLPC     HA       HAL2     0.900000E-01   1.00800           0
      8242 MEMB     73       SLPC     HB       HAL2     0.900000E-01   1.00800           0
      8243 MEMB     73       SLPC     C2       CTL1     0.170000       12.0110           0
      8244 MEMB     73       SLPC     HS       HAL1     0.900000E-01   1.00800           0
      8245 MEMB     73       SLPC     O21      OSL     -0.490000       15.9994           0
      8246 MEMB     73       SLPC     C21      CL       0.900000       12.0110           0
      8247 MEMB     73       SLPC     O22      OBL     -0.630000       15.9994           0
      8248 MEMB     73       SLPC     C22      CTL2    -0.220000       12.0110           0
      8249 MEMB     73       SLPC     H2R      HAL2     0.900000E-01   1.00800           0
      8250 MEMB     73       SLPC     H2S      HAL2     0.900000E-01   1.00800           0
      8251 MEMB     73       SLPC     C3       CTL2     0.800000E-01   12.0110           0
      8252 MEMB     73       SLPC     HX       HAL2     0.900000E-01   1.00800           0
      8253 MEMB     73       SLPC     HY       HAL2     0.900000E-01   1.00800           0
      8254 MEMB     73       SLPC     O31      OSL     -0.490000       15.9994           0
      8255 MEMB     73       SLPC     C31      CL       0.900000       12.0110           0
      8256 MEMB     73       SLPC     O32      OBL     -0.630000       15.9994           0
      8257 MEMB     73       SLPC     C32      CTL2    -0.220000       12.0110           0
      8258 MEMB     73       SLPC     H2X      HAL2     0.900000E-01   1.00800           0
      8259 MEMB     73       SLPC     H2Y      HAL2     0.900000E-01   1.00800           0
      8260 MEMB     73       SLPC     C23      CTL2    -0.180000       12.0110           0
      8261 MEMB     73       SLPC     H3R      HAL2     0.900000E-01   1.00800           0
      8262 MEMB     73       SLPC     H3S      HAL2     0.900000E-01   1.00800           0
      8263 MEMB     73       SLPC     C24      CTL2    -0.180000       12.0110           0
      8264 MEMB     73       SLPC     H4R      HAL2     0.900000E-01   1.00800           0
      8265 MEMB     73       SLPC     H4S      HAL2     0.900000E-01   1.00800           0
      8266 MEMB     73       SLPC     C25      CTL2    -0.180000       12.0110           0
      8267 MEMB     73       SLPC     H5R      HAL2     0.900000E-01   1.00800           0
      8268 MEMB     73       SLPC     H5S      HAL2     0.900000E-01   1.00800           0
      8269 MEMB     73       SLPC     C26      CTL2    -0.180000       12.0110           0
      8270 MEMB     73       SLPC     H6R      HAL2     0.900000E-01   1.00800           0
      8271 MEMB     73       SLPC     H6S      HAL2     0.900000E-01   1.00800           0
      8272 MEMB     73       SLPC     C27      CTL2    -0.180000       12.0110           0
      8273 MEMB     73       SLPC     H7R      HAL2     0.900000E-01   1.00800           0
      8274 MEMB     73       SLPC     H7S      HAL2     0.900000E-01   1.00800           0
      8275 MEMB     73       SLPC     C28      CTL2    -0.180000       12.0110           0
      8276 MEMB     73       SLPC     H8R      HAL2     0.900000E-01   1.00800           0
      8277 MEMB     73       SLPC     H8S      HAL2     0.900000E-01   1.00800           0
      8278 MEMB     73       SLPC     C29      CEL1    -0.150000       12.0110           0
      8279 MEMB     73       SLPC     H9R      HEL1     0.150000       1.00800           0
      8280 MEMB     73       SLPC     C210     CEL1    -0.150000       12.0110           0
      8281 MEMB     73       SLPC     H10R     HEL1     0.150000       1.00800           0
      8282 MEMB     73       SLPC     C211     CTL2    -0.180000       12.0110           0
      8283 MEMB     73       SLPC     H11R     HAL2     0.900000E-01   1.00800           0
      8284 MEMB     73       SLPC     H11S     HAL2     0.900000E-01   1.00800           0
      8285 MEMB     73       SLPC     C212     CEL1    -0.150000       12.0110           0
      8286 MEMB     73       SLPC     H12R     HEL1     0.150000       1.00800           0
      8287 MEMB     73       SLPC     C213     CEL1    -0.150000       12.0110           0
      8288 MEMB     73       SLPC     H13R     HEL1     0.150000       1.00800           0
      8289 MEMB     73       SLPC     C214     CTL2    -0.180000       12.0110           0
      8290 MEMB     73       SLPC     H14R     HAL2     0.900000E-01   1.00800           0
      8291 MEMB     73       SLPC     H14S     HAL2     0.900000E-01   1.00800           0
      8292 MEMB     73       SLPC     C215     CTL2    -0.180000       12.0110           0
      8293 MEMB     73       SLPC     H15R     HAL2     0.900000E-01   1.00800           0
      8294 MEMB     73       SLPC     H15S     HAL2     0.900000E-01   1.00800           0
      8295 MEMB     73       SLPC     C216     CTL2    -0.180000       12.0110           0
      8296 MEMB     73       SLPC     H16R     HAL2     0.900000E-01   1.00800           0
      8297 MEMB     73       SLPC     H16S     HAL2     0.900000E-01   1.00800           0
      8298 MEMB     73       SLPC     C217     CTL2    -0.180000       12.0110           0
      8299 MEMB     73       SLPC     H17R     HAL2     0.900000E-01   1.00800           0
      8300 MEMB     73       SLPC     H17S     HAL2     0.900000E-01   1.00800           0
      8301 MEMB     73       SLPC     C218     CTL3    -0.270000       12.0110           0
      8302 MEMB     73       SLPC     H18R     HAL3     0.900000E-01   1.00800           0
      8303 MEMB     73       SLPC     H18S     HAL3     0.900000E-01   1.00800           0
      8304 MEMB     73       SLPC     H18T     HAL3     0.900000E-01   1.00800           0
      8305 MEMB     73       SLPC     C33      CTL2    -0.180000       12.0110           0
      8306 MEMB     73       SLPC     H3X      HAL2     0.900000E-01   1.00800           0
      8307 MEMB     73       SLPC     H3Y      HAL2     0.900000E-01   1.00800           0
      8308 MEMB     73       SLPC     C34      CTL2    -0.180000       12.0110           0
      8309 MEMB     73       SLPC     H4X      HAL2     0.900000E-01   1.00800           0
      8310 MEMB     73       SLPC     H4Y      HAL2     0.900000E-01   1.00800           0
      8311 MEMB     73       SLPC     C35      CTL2    -0.180000       12.0110           0
      8312 MEMB     73       SLPC     H5X      HAL2     0.900000E-01   1.00800           0
      8313 MEMB     73       SLPC     H5Y      HAL2     0.900000E-01   1.00800           0
      8314 MEMB     73       SLPC     C36      CTL2    -0.180000       12.0110           0
      8315 MEMB     73       SLPC     H6X      HAL2     0.900000E-01   1.00800           0
      8316 MEMB     73       SLPC     H6Y      HAL2     0.900000E-01   1.00800           0
      8317 MEMB     73       SLPC     C37      CTL2    -0.180000       12.0110           0
      8318 MEMB     73       SLPC     H7X      HAL2     0.900000E-01   1.00800           0
      8319 MEMB     73       SLPC     H7Y      HAL2     0.900000E-01   1.00800           0
      8320 MEMB     73       SLPC     C38      CTL2    -0.180000       12.0110           0
      8321 MEMB     73       SLPC     H8X      HAL2     0.900000E-01   1.00800           0
      8322 MEMB     73       SLPC     H8Y      HAL2     0.900000E-01   1.00800           0
      8323 MEMB     73       SLPC     C39      CTL2    -0.180000       12.0110           0
      8324 MEMB     73       SLPC     H9X      HAL2     0.900000E-01   1.00800           0
      8325 MEMB     73       SLPC     H9Y      HAL2     0.900000E-01   1.00800           0
      8326 MEMB     73       SLPC     C310     CTL2    -0.180000       12.0110           0
      8327 MEMB     73       SLPC     H10X     HAL2     0.900000E-01   1.00800           0
      8328 MEMB     73       SLPC     H10Y     HAL2     0.900000E-01   1.00800           0
      8329 MEMB     73       SLPC     C311     CTL2    -0.180000       12.0110           0
      8330 MEMB     73       SLPC     H11X     HAL2     0.900000E-01   1.00800           0
      8331 MEMB     73       SLPC     H11Y     HAL2     0.900000E-01   1.00800           0
      8332 MEMB     73       SLPC     C312     CTL2    -0.180000       12.0110           0
      8333 MEMB     73       SLPC     H12X     HAL2     0.900000E-01   1.00800           0
      8334 MEMB     73       SLPC     H12Y     HAL2     0.900000E-01   1.00800           0
      8335 MEMB     73       SLPC     C313     CTL2    -0.180000       12.0110           0
      8336 MEMB     73       SLPC     H13X     HAL2     0.900000E-01   1.00800           0
      8337 MEMB     73       SLPC     H13Y     HAL2     0.900000E-01   1.00800           0
      8338 MEMB     73       SLPC     C314     CTL2    -0.180000       12.0110           0
      8339 MEMB     73       SLPC     H14X     HAL2     0.900000E-01   1.00800           0
      8340 MEMB     73       SLPC     H14Y     HAL2     0.900000E-01   1.00800           0
      8341 MEMB     73       SLPC     C315     CTL2    -0.180000       12.0110           0
      8342 MEMB     73       SLPC     H15X     HAL2     0.900000E-01   1.00800           0
      8343 MEMB     73       SLPC     H15Y     HAL2     0.900000E-01   1.00800           0
      8344 MEMB     73       SLPC     C316     CTL2    -0.180000       12.0110           0
      8345 MEMB     73       SLPC     H16X     HAL2     0.900000E-01   1.00800           0
      8346 MEMB     73       SLPC     H16Y     HAL2     0.900000E-01   1.00800           0
      8347 MEMB     73       SLPC     C317     CTL2    -0.180000       12.0110           0
      8348 MEMB     73       SLPC     H17X     HAL2     0.900000E-01   1.00800           0
      8349 MEMB     73       SLPC     H17Y     HAL2     0.900000E-01   1.00800           0
      8350 MEMB     73       SLPC     C318     CTL3    -0.270000       12.0110           0
      8351 MEMB     73       SLPC     H18X     HAL3     0.900000E-01   1.00800           0
      8352 MEMB     73       SLPC     H18Y     HAL3     0.900000E-01   1.00800           0
      8353 MEMB     73       SLPC     H18Z     HAL3     0.900000E-01   1.00800           0
      8354 MEMB     74       OSM      N        NTL     -0.600000       14.0070           0
      8355 MEMB     74       OSM      C15      CTL5    -0.350000       12.0110           0
      8356 MEMB     74       OSM      H15A     HL       0.250000       1.00800           0
      8357 MEMB     74       OSM      H15B     HL       0.250000       1.00800           0
      8358 MEMB     74       OSM      H15C     HL       0.250000       1.00800           0
      8359 MEMB     74       OSM      C14      CTL5    -0.350000       12.0110           0
      8360 MEMB     74       OSM      H14A     HL       0.250000       1.00800           0
      8361 MEMB     74       OSM      H14B     HL       0.250000       1.00800           0
      8362 MEMB     74       OSM      H14C     HL       0.250000       1.00800           0
      8363 MEMB     74       OSM      C13      CTL5    -0.350000       12.0110           0
      8364 MEMB     74       OSM      H13A     HL       0.250000       1.00800           0
      8365 MEMB     74       OSM      H13B     HL       0.250000       1.00800           0
      8366 MEMB     74       OSM      H13C     HL       0.250000       1.00800           0
      8367 MEMB     74       OSM      C12      CTL2    -0.100000       12.0110           0
      8368 MEMB     74       OSM      H12A     HL       0.250000       1.00800           0
      8369 MEMB     74       OSM      H12B     HL       0.250000       1.00800           0
      8370 MEMB     74       OSM      C11      CTL2    -0.800000E-01   12.0110           0
      8371 MEMB     74       OSM      H11A     HAL2     0.900000E-01   1.00800           0
      8372 MEMB     74       OSM      H11B     HAL2     0.900000E-01   1.00800           0
      8373 MEMB     74       OSM      P        PL        1.50000       30.9740           0
      8374 MEMB     74       OSM      O13      O2L     -0.780000       15.9994           0
      8375 MEMB     74       OSM      O14      O2L     -0.780000       15.9994           0
      8376 MEMB     74       OSM      O11      OSLP    -0.570000       15.9994           0
      8377 MEMB     74       OSM      O12      OSLP    -0.570000       15.9994           0
      8378 MEMB     74       OSM      C1S      CTL2    -0.800000E-01   12.0110           0
      8379 MEMB     74       OSM      H1S      HAL2     0.900000E-01   1.00800           0
      8380 MEMB     74       OSM      H1T      HAL2     0.900000E-01   1.00800           0
      8381 MEMB     74       OSM      NF       NHL     -0.700000       14.0070           0
      8382 MEMB     74       OSM      HNF      H        0.350000       1.00800           0
      8383 MEMB     74       OSM      C2S      CTL1     0.300000       12.0110           0
      8384 MEMB     74       OSM      H2S      HAL1     0.500000E-01   1.00800           0
      8385 MEMB     74       OSM      C3S      CTO1     0.500000       12.0110           0
      8386 MEMB     74       OSM      H3S      HAL1    -0.110000       1.00800           0
      8387 MEMB     74       OSM      O3       OHL     -0.690000       15.9994           0
      8388 MEMB     74       OSM      HO3      HOL      0.300000       1.00800           0
      8389 MEMB     74       OSM      C4S      CEL3    -0.150000       12.0110           0
      8390 MEMB     74       OSM      H4S      HEL1     0.150000       1.00800           0
      8391 MEMB     74       OSM      C5S      CEL3    -0.150000       12.0110           0
      8392 MEMB     74       OSM      H5S      HEL1     0.150000       1.00800           0
      8393 MEMB     74       OSM      C6S      CTL2    -0.180000       12.0110           0
      8394 MEMB     74       OSM      H6S      HAL2     0.900000E-01   1.00800           0
      8395 MEMB     74       OSM      H6T      HAL2     0.900000E-01   1.00800           0
      8396 MEMB     74       OSM      C7S      CTL2    -0.180000       12.0110           0
      8397 MEMB     74       OSM      H7S      HAL2     0.900000E-01   1.00800           0
      8398 MEMB     74       OSM      H7T      HAL2     0.900000E-01   1.00800           0
      8399 MEMB     74       OSM      C8S      CTL2    -0.180000       12.0110           0
      8400 MEMB     74       OSM      H8S      HAL2     0.900000E-01   1.00800           0
      8401 MEMB     74       OSM      H8T      HAL2     0.900000E-01   1.00800           0
      8402 MEMB     74       OSM      C9S      CTL2    -0.180000       12.0110           0
      8403 MEMB     74       OSM      H9S      HAL2     0.900000E-01   1.00800           0
      8404 MEMB     74       OSM      H9T      HAL2     0.900000E-01   1.00800           0
      8405 MEMB     74       OSM      C10S     CTL2    -0.180000       12.0110           0
      8406 MEMB     74       OSM      H10S     HAL2     0.900000E-01   1.00800           0
      8407 MEMB     74       OSM      H10T     HAL2     0.900000E-01   1.00800           0
      8408 MEMB     74       OSM      C11S     CTL2    -0.180000       12.0110           0
      8409 MEMB     74       OSM      H11S     HAL2     0.900000E-01   1.00800           0
      8410 MEMB     74       OSM      H11T     HAL2     0.900000E-01   1.00800           0
      8411 MEMB     74       OSM      C12S     CTL2    -0.180000       12.0110           0
      8412 MEMB     74       OSM      H12S     HAL2     0.900000E-01   1.00800           0
      8413 MEMB     74       OSM      H12T     HAL2     0.900000E-01   1.00800           0
      8414 MEMB     74       OSM      C13S     CTL2    -0.180000       12.0110           0
      8415 MEMB     74       OSM      H13S     HAL2     0.900000E-01   1.00800           0
      8416 MEMB     74       OSM      H13T     HAL2     0.900000E-01   1.00800           0
      8417 MEMB     74       OSM      C14S     CTL2    -0.180000       12.0110           0
      8418 MEMB     74       OSM      H14S     HAL2     0.900000E-01   1.00800           0
      8419 MEMB     74       OSM      H14T     HAL2     0.900000E-01   1.00800           0
      8420 MEMB     74       OSM      C15S     CTL2    -0.180000       12.0110           0
      8421 MEMB     74       OSM      H15S     HAL2     0.900000E-01   1.00800           0
      8422 MEMB     74       OSM      H15T     HAL2     0.900000E-01   1.00800           0
      8423 MEMB     74       OSM      C16S     CTL2    -0.180000       12.0110           0
      8424 MEMB     74       OSM      H16S     HAL2     0.900000E-01   1.00800           0
      8425 MEMB     74       OSM      H16T     HAL2     0.900000E-01   1.00800           0
      8426 MEMB     74       OSM      C17S     CTL2    -0.180000       12.0110           0
      8427 MEMB     74       OSM      H17S     HAL2     0.900000E-01   1.00800           0
      8428 MEMB     74       OSM      H17T     HAL2     0.900000E-01   1.00800           0
      8429 MEMB     74       OSM      C18S     CTL3    -0.270000       12.0110           0
      8430 MEMB     74       OSM      H18S     HAL3     0.900000E-01   1.00800           0
      8431 MEMB     74       OSM      H18T     HAL3     0.900000E-01   1.00800           0
      8432 MEMB     74       OSM      H18U     HAL3     0.900000E-01   1.00800           0
      8433 MEMB     74       OSM      C1F      C        0.550000       12.0110           0
      8434 MEMB     74       OSM      OF       O       -0.600000       15.9994           0
      8435 MEMB     74       OSM      C2F      CTL2    -0.700000E-01   12.0110           0
      8436 MEMB     74       OSM      H2F      HAL2     0.600000E-01   1.00800           0
      8437 MEMB     74       OSM      H2G      HAL2     0.600000E-01   1.00800           0
      8438 MEMB     74       OSM      C3F      CTL2    -0.180000       12.0110           0
      8439 MEMB     74       OSM      H3F      HAL2     0.900000E-01   1.00800           0
      8440 MEMB     74       OSM      H3G      HAL2     0.900000E-01   1.00800           0
      8441 MEMB     74       OSM      C4F      CTL2    -0.180000       12.0110           0
      8442 MEMB     74       OSM      H4F      HAL2     0.900000E-01   1.00800           0
      8443 MEMB     74       OSM      H4G      HAL2     0.900000E-01   1.00800           0
      8444 MEMB     74       OSM      C5F      CTL2    -0.180000       12.0110           0
      8445 MEMB     74       OSM      H5F      HAL2     0.900000E-01   1.00800           0
      8446 MEMB     74       OSM      H5G      HAL2     0.900000E-01   1.00800           0
      8447 MEMB     74       OSM      C6F      CTL2    -0.180000       12.0110           0
      8448 MEMB     74       OSM      H6F      HAL2     0.900000E-01   1.00800           0
      8449 MEMB     74       OSM      H6G      HAL2     0.900000E-01   1.00800           0
      8450 MEMB     74       OSM      C7F      CTL2    -0.180000       12.0110           0
      8451 MEMB     74       OSM      H7F      HAL2     0.900000E-01   1.00800           0
      8452 MEMB     74       OSM      H7G      HAL2     0.900000E-01   1.00800           0
      8453 MEMB     74       OSM      C8F      CTL2    -0.180000       12.0110           0
      8454 MEMB     74       OSM      H8F      HAL2     0.900000E-01   1.00800           0
      8455 MEMB     74       OSM      H8G      HAL2     0.900000E-01   1.00800           0
      8456 MEMB     74       OSM      C9F      CEL1    -0.150000       12.0110           0
      8457 MEMB     74       OSM      H9F      HEL1     0.150000       1.00800           0
      8458 MEMB     74       OSM      C10F     CEL1    -0.150000       12.0110           0
      8459 MEMB     74       OSM      H10F     HEL1     0.150000       1.00800           0
      8460 MEMB     74       OSM      C11F     CTL2    -0.180000       12.0110           0
      8461 MEMB     74       OSM      H11F     HAL2     0.900000E-01   1.00800           0
      8462 MEMB     74       OSM      H11G     HAL2     0.900000E-01   1.00800           0
      8463 MEMB     74       OSM      C12F     CTL2    -0.180000       12.0110           0
      8464 MEMB     74       OSM      H12F     HAL2     0.900000E-01   1.00800           0
      8465 MEMB     74       OSM      H12G     HAL2     0.900000E-01   1.00800           0
      8466 MEMB     74       OSM      C13F     CTL2    -0.180000       12.0110           0
      8467 MEMB     74       OSM      H13F     HAL2     0.900000E-01   1.00800           0
      8468 MEMB     74       OSM      H13G     HAL2     0.900000E-01   1.00800           0
      8469 MEMB     74       OSM      C14F     CTL2    -0.180000       12.0110           0
      8470 MEMB     74       OSM      H14F     HAL2     0.900000E-01   1.00800           0
      8471 MEMB     74       OSM      H14G     HAL2     0.900000E-01   1.00800           0
      8472 MEMB     74       OSM      C15F     CTL2    -0.180000       12.0110           0
      8473 MEMB     74       OSM      H15F     HAL2     0.900000E-01   1.00800           0
      8474 MEMB     74       OSM      H15G     HAL2     0.900000E-01   1.00800           0
      8475 MEMB     74       OSM      C16F     CTL2    -0.180000       12.0110           0
      8476 MEMB     74       OSM      H16F     HAL2     0.900000E-01   1.00800           0
      8477 MEMB     74       OSM      H16G     HAL2     0.900000E-01   1.00800           0
      8478 MEMB     74       OSM      C17F     CTL2    -0.180000       12.0110           0
      8479 MEMB     74       OSM      H17F     HAL2     0.900000E-01   1.00800           0
      8480 MEMB     74       OSM      H17G     HAL2     0.900000E-01   1.00800           0
      8481 MEMB     74       OSM      C18F     CTL3    -0.270000       12.0110           0
      8482 MEMB     74       OSM      H18F     HAL3     0.900000E-01   1.00800           0
      8483 MEMB     74       OSM      H18G     HAL3     0.900000E-01   1.00800           0
      8484 MEMB     74       OSM      H18H     HAL3     0.900000E-01   1.00800           0
      8485 MEMB     75       CHL1     C3       CRL1     0.140000       12.0110           0
      8486 MEMB     75       CHL1     H3       HGA1     0.900000E-01   1.00800           0
      8487 MEMB     75       CHL1     O3       OHL     -0.660000       15.9994           0
      8488 MEMB     75       CHL1     H3'      HOL      0.430000       1.00800           0
      8489 MEMB     75       CHL1     C4       CRL2    -0.180000       12.0110           0
      8490 MEMB     75       CHL1     H4A      HGA2     0.900000E-01   1.00800           0
      8491 MEMB     75       CHL1     H4B      HGA2     0.900000E-01   1.00800           0
      8492 MEMB     75       CHL1     C5       CEL1      0.00000       12.0110           0
      8493 MEMB     75       CHL1     C6       CEL1    -0.150000       12.0110           0
      8494 MEMB     75       CHL1     H6       HEL1     0.150000       1.00800           0
      8495 MEMB     75       CHL1     C7       CRL2    -0.180000       12.0110           0
      8496 MEMB     75       CHL1     H7A      HGA2     0.900000E-01   1.00800           0
      8497 MEMB     75       CHL1     H7B      HGA2     0.900000E-01   1.00800           0
      8498 MEMB     75       CHL1     C8       CRL1    -0.900000E-01   12.0110           0
      8499 MEMB     75       CHL1     H8       HGA1     0.900000E-01   1.00800           0
      8500 MEMB     75       CHL1     C14      CRL1    -0.900000E-01   12.0110           0
      8501 MEMB     75       CHL1     H14      HGA1     0.900000E-01   1.00800           0
      8502 MEMB     75       CHL1     C15      CRL2    -0.180000       12.0110           0
      8503 MEMB     75       CHL1     H15A     HGA2     0.900000E-01   1.00800           0
      8504 MEMB     75       CHL1     H15B     HGA2     0.900000E-01   1.00800           0
      8505 MEMB     75       CHL1     C16      CRL2    -0.180000       12.0110           0
      8506 MEMB     75       CHL1     H16A     HGA2     0.900000E-01   1.00800           0
      8507 MEMB     75       CHL1     H16B     HGA2     0.900000E-01   1.00800           0
      8508 MEMB     75       CHL1     C17      CRL1    -0.900000E-01   12.0110           0
      8509 MEMB     75       CHL1     H17      HGA1     0.900000E-01   1.00800           0
      8510 MEMB     75       CHL1     C13      CRL1      0.00000       12.0110           0
      8511 MEMB     75       CHL1     C18      CTL3    -0.270000       12.0110           0
      8512 MEMB     75       CHL1     H18A     HAL3     0.900000E-01   1.00800           0
      8513 MEMB     75       CHL1     H18B     HAL3     0.900000E-01   1.00800           0
      8514 MEMB     75       CHL1     H18C     HAL3     0.900000E-01   1.00800           0
      8515 MEMB     75       CHL1     C12      CRL2    -0.180000       12.0110           0
      8516 MEMB     75       CHL1     H12A     HGA2     0.900000E-01   1.00800           0
      8517 MEMB     75       CHL1     H12B     HGA2     0.900000E-01   1.00800           0
      8518 MEMB     75       CHL1     C11      CRL2    -0.180000       12.0110           0
      8519 MEMB     75       CHL1     H11A     HGA2     0.900000E-01   1.00800           0
      8520 MEMB     75       CHL1     H11B     HGA2     0.900000E-01   1.00800           0
      8521 MEMB     75       CHL1     C9       CRL1    -0.900000E-01   12.0110           0
      8522 MEMB     75       CHL1     H9       HGA1     0.900000E-01   1.00800           0
      8523 MEMB     75       CHL1     C10      CRL1      0.00000       12.0110           0
      8524 MEMB     75       CHL1     C19      CTL3    -0.270000       12.0110           0
      8525 MEMB     75       CHL1     H19A     HAL3     0.900000E-01   1.00800           0
      8526 MEMB     75       CHL1     H19B     HAL3     0.900000E-01   1.00800           0
      8527 MEMB     75       CHL1     H19C     HAL3     0.900000E-01   1.00800           0
      8528 MEMB     75       CHL1     C1       CRL2    -0.180000       12.0110           0
      8529 MEMB     75       CHL1     H1A      HGA2     0.900000E-01   1.00800           0
      8530 MEMB     75       CHL1     H1B      HGA2     0.900000E-01   1.00800           0
      8531 MEMB     75       CHL1     C2       CRL2    -0.180000       12.0110           0
      8532 MEMB     75       CHL1     H2A      HGA2     0.900000E-01   1.00800           0
      8533 MEMB     75       CHL1     H2B      HGA2     0.900000E-01   1.00800           0
      8534 MEMB     75       CHL1     C20      CTL1    -0.900000E-01   12.0110           0
      8535 MEMB     75       CHL1     H20      HAL1     0.900000E-01   1.00800           0
      8536 MEMB     75       CHL1     C21      CTL3    -0.270000       12.0110           0
      8537 MEMB     75       CHL1     H21A     HAL3     0.900000E-01   1.00800           0
      8538 MEMB     75       CHL1     H21B     HAL3     0.900000E-01   1.00800           0
      8539 MEMB     75       CHL1     H21C     HAL3     0.900000E-01   1.00800           0
      8540 MEMB     75       CHL1     C22      CTL2    -0.180000       12.0110           0
      8541 MEMB     75       CHL1     H22A     HAL2     0.900000E-01   1.00800           0
      8542 MEMB     75       CHL1     H22B     HAL2     0.900000E-01   1.00800           0
      8543 MEMB     75       CHL1     C23      CTL2    -0.180000       12.0110           0
      8544 MEMB     75       CHL1     H23A     HAL2     0.900000E-01   1.00800           0
      8545 MEMB     75       CHL1     H23B     HAL2     0.900000E-01   1.00800           0
      8546 MEMB     75       CHL1     C24      CTL2    -0.180000       12.0110           0
      8547 MEMB     75       CHL1     H24A     HAL2     0.900000E-01   1.00800           0
      8548 MEMB     75       CHL1     H24B     HAL2     0.900000E-01   1.00800           0
      8549 MEMB     75       CHL1     C25      CTL1    -0.900000E-01   12.0110           0
      8550 MEMB     75       CHL1     H25      HAL1     0.900000E-01   1.00800           0
      8551 MEMB     75       CHL1     C26      CTL3    -0.270000       12.0110           0
      8552 MEMB     75       CHL1     H26A     HAL3     0.900000E-01   1.00800           0
      8553 MEMB     75       CHL1     H26B     HAL3     0.900000E-01   1.00800           0
      8554 MEMB     75       CHL1     H26C     HAL3     0.900000E-01   1.00800           0
      8555 MEMB     75       CHL1     C27      CTL3    -0.270000       12.0110           0
      8556 MEMB     75       CHL1     H27A     HAL3     0.900000E-01   1.00800           0
      8557 MEMB     75       CHL1     H27B     HAL3     0.900000E-01   1.00800           0
      8558 MEMB     75       CHL1     H27C     HAL3     0.900000E-01   1.00800           0
      8559 MEMB     76       SAPC     N        NTL     -0.600000       14.0070           0
      8560 MEMB     76       SAPC     C12      CTL2    -0.100000       12.0110           0
      8561 MEMB     76       SAPC     H12A     HL       0.250000       1.00800           0
      8562 MEMB     76       SAPC     H12B     HL       0.250000       1.00800           0
      8563 MEMB     76       SAPC     C13      CTL5    -0.350000       12.0110           0
      8564 MEMB     76       SAPC     H13A     HL       0.250000       1.00800           0
      8565 MEMB     76       SAPC     H13B     HL       0.250000       1.00800           0
      8566 MEMB     76       SAPC     H13C     HL       0.250000       1.00800           0
      8567 MEMB     76       SAPC     C14      CTL5    -0.350000       12.0110           0
      8568 MEMB     76       SAPC     H14A     HL       0.250000       1.00800           0
      8569 MEMB     76       SAPC     H14B     HL       0.250000       1.00800           0
      8570 MEMB     76       SAPC     H14C     HL       0.250000       1.00800           0
      8571 MEMB     76       SAPC     C15      CTL5    -0.350000       12.0110           0
      8572 MEMB     76       SAPC     H15A     HL       0.250000       1.00800           0
      8573 MEMB     76       SAPC     H15B     HL       0.250000       1.00800           0
      8574 MEMB     76       SAPC     H15C     HL       0.250000       1.00800           0
      8575 MEMB     76       SAPC     C11      CTL2    -0.800000E-01   12.0110           0
      8576 MEMB     76       SAPC     H11A     HAL2     0.900000E-01   1.00800           0
      8577 MEMB     76       SAPC     H11B     HAL2     0.900000E-01   1.00800           0
      8578 MEMB     76       SAPC     P        PL        1.50000       30.9740           0
      8579 MEMB     76       SAPC     O13      O2L     -0.780000       15.9994           0
      8580 MEMB     76       SAPC     O14      O2L     -0.780000       15.9994           0
      8581 MEMB     76       SAPC     O12      OSLP    -0.570000       15.9994           0
      8582 MEMB     76       SAPC     O11      OSLP    -0.570000       15.9994           0
      8583 MEMB     76       SAPC     C1       CTL2    -0.800000E-01   12.0110           0
      8584 MEMB     76       SAPC     HA       HAL2     0.900000E-01   1.00800           0
      8585 MEMB     76       SAPC     HB       HAL2     0.900000E-01   1.00800           0
      8586 MEMB     76       SAPC     C2       CTL1     0.170000       12.0110           0
      8587 MEMB     76       SAPC     HS       HAL1     0.900000E-01   1.00800           0
      8588 MEMB     76       SAPC     O21      OSL     -0.490000       15.9994           0
      8589 MEMB     76       SAPC     C21      CL       0.900000       12.0110           0
      8590 MEMB     76       SAPC     O22      OBL     -0.630000       15.9994           0
      8591 MEMB     76       SAPC     C22      CTL2    -0.220000       12.0110           0
      8592 MEMB     76       SAPC     H2R      HAL2     0.900000E-01   1.00800           0
      8593 MEMB     76       SAPC     H2S      HAL2     0.900000E-01   1.00800           0
      8594 MEMB     76       SAPC     C3       CTL2     0.800000E-01   12.0110           0
      8595 MEMB     76       SAPC     HX       HAL2     0.900000E-01   1.00800           0
      8596 MEMB     76       SAPC     HY       HAL2     0.900000E-01   1.00800           0
      8597 MEMB     76       SAPC     O31      OSL     -0.490000       15.9994           0
      8598 MEMB     76       SAPC     C31      CL       0.900000       12.0110           0
      8599 MEMB     76       SAPC     O32      OBL     -0.630000       15.9994           0
      8600 MEMB     76       SAPC     C32      CTL2    -0.220000       12.0110           0
      8601 MEMB     76       SAPC     H2X      HAL2     0.900000E-01   1.00800           0
      8602 MEMB     76       SAPC     H2Y      HAL2     0.900000E-01   1.00800           0
      8603 MEMB     76       SAPC     C23      CTL2    -0.180000       12.0110           0
      8604 MEMB     76       SAPC     H3R      HAL2     0.900000E-01   1.00800           0
      8605 MEMB     76       SAPC     H3S      HAL2     0.900000E-01   1.00800           0
      8606 MEMB     76       SAPC     C24      CTL2    -0.180000       12.0110           0
      8607 MEMB     76       SAPC     H4R      HAL2     0.900000E-01   1.00800           0
      8608 MEMB     76       SAPC     H4S      HAL2     0.900000E-01   1.00800           0
      8609 MEMB     76       SAPC     C25      CEL1    -0.150000       12.0110           0
      8610 MEMB     76       SAPC     H5R      HEL1     0.150000       1.00800           0
      8611 MEMB     76       SAPC     C26      CEL1    -0.150000       12.0110           0
      8612 MEMB     76       SAPC     H6R      HEL1     0.150000       1.00800           0
      8613 MEMB     76       SAPC     C27      CTL2    -0.180000       12.0110           0
      8614 MEMB     76       SAPC     H7R      HAL2     0.900000E-01   1.00800           0
      8615 MEMB     76       SAPC     H7S      HAL2     0.900000E-01   1.00800           0
      8616 MEMB     76       SAPC     C28      CEL1    -0.150000       12.0110           0
      8617 MEMB     76       SAPC     H8R      HEL1     0.150000       1.00800           0
      8618 MEMB     76       SAPC     C29      CEL1    -0.150000       12.0110           0
      8619 MEMB     76       SAPC     H9R      HEL1     0.150000       1.00800           0
      8620 MEMB     76       SAPC     C210     CTL2    -0.180000       12.0110           0
      8621 MEMB     76       SAPC     H10R     HAL2     0.900000E-01   1.00800           0
      8622 MEMB     76       SAPC     H10S     HAL2     0.900000E-01   1.00800           0
      8623 MEMB     76       SAPC     C211     CEL1    -0.150000       12.0110           0
      8624 MEMB     76       SAPC     H11R     HEL1     0.150000       1.00800           0
      8625 MEMB     76       SAPC     C212     CEL1    -0.150000       12.0110           0
      8626 MEMB     76       SAPC     H12R     HEL1     0.150000       1.00800           0
      8627 MEMB     76       SAPC     C213     CTL2    -0.180000       12.0110           0
      8628 MEMB     76       SAPC     H13R     HAL2     0.900000E-01   1.00800           0
      8629 MEMB     76       SAPC     H13S     HAL2     0.900000E-01   1.00800           0
      8630 MEMB     76       SAPC     C214     CEL1    -0.150000       12.0110           0
      8631 MEMB     76       SAPC     H14R     HEL1     0.150000       1.00800           0
      8632 MEMB     76       SAPC     C215     CEL1    -0.150000       12.0110           0
      8633 MEMB     76       SAPC     H15R     HEL1     0.150000       1.00800           0
      8634 MEMB     76       SAPC     C216     CTL2    -0.180000       12.0110           0
      8635 MEMB     76       SAPC     H16R     HAL2     0.900000E-01   1.00800           0
      8636 MEMB     76       SAPC     H16S     HAL2     0.900000E-01   1.00800           0
      8637 MEMB     76       SAPC     C217     CTL2    -0.180000       12.0110           0
      8638 MEMB     76       SAPC     H17R     HAL2     0.900000E-01   1.00800           0
      8639 MEMB     76       SAPC     H17S     HAL2     0.900000E-01   1.00800           0
      8640 MEMB     76       SAPC     C218     CTL2    -0.270000       12.0110           0
      8641 MEMB     76       SAPC     H18R     HAL2     0.900000E-01   1.00800           0
      8642 MEMB     76       SAPC     H18S     HAL2     0.900000E-01   1.00800           0
      8643 MEMB     76       SAPC     C219     CTL2    -0.180000       12.0110           0
      8644 MEMB     76       SAPC     H19R     HAL2     0.900000E-01   1.00800           0
      8645 MEMB     76       SAPC     H19S     HAL2     0.900000E-01   1.00800           0
      8646 MEMB     76       SAPC     C220     CTL3    -0.180000       12.0110           0
      8647 MEMB     76       SAPC     H20R     HAL3     0.900000E-01   1.00800           0
      8648 MEMB     76       SAPC     H20S     HAL3     0.900000E-01   1.00800           0
      8649 MEMB     76       SAPC     H20T     HAL3     0.900000E-01   1.00800           0
      8650 MEMB     76       SAPC     C33      CTL2    -0.180000       12.0110           0
      8651 MEMB     76       SAPC     H3X      HAL2     0.900000E-01   1.00800           0
      8652 MEMB     76       SAPC     H3Y      HAL2     0.900000E-01   1.00800           0
      8653 MEMB     76       SAPC     C34      CTL2    -0.180000       12.0110           0
      8654 MEMB     76       SAPC     H4X      HAL2     0.900000E-01   1.00800           0
      8655 MEMB     76       SAPC     H4Y      HAL2     0.900000E-01   1.00800           0
      8656 MEMB     76       SAPC     C35      CTL2    -0.180000       12.0110           0
      8657 MEMB     76       SAPC     H5X      HAL2     0.900000E-01   1.00800           0
      8658 MEMB     76       SAPC     H5Y      HAL2     0.900000E-01   1.00800           0
      8659 MEMB     76       SAPC     C36      CTL2    -0.180000       12.0110           0
      8660 MEMB     76       SAPC     H6X      HAL2     0.900000E-01   1.00800           0
      8661 MEMB     76       SAPC     H6Y      HAL2     0.900000E-01   1.00800           0
      8662 MEMB     76       SAPC     C37      CTL2    -0.180000       12.0110           0
      8663 MEMB     76       SAPC     H7X      HAL2     0.900000E-01   1.00800           0
      8664 MEMB     76       SAPC     H7Y      HAL2     0.900000E-01   1.00800           0
      8665 MEMB     76       SAPC     C38      CTL2    -0.180000       12.0110           0
      8666 MEMB     76       SAPC     H8X      HAL2     0.900000E-01   1.00800           0
      8667 MEMB     76       SAPC     H8Y      HAL2     0.900000E-01   1.00800           0
      8668 MEMB     76       SAPC     C39      CTL2    -0.180000       12.0110           0
      8669 MEMB     76       SAPC     H9X      HAL2     0.900000E-01   1.00800           0
      8670 MEMB     76       SAPC     H9Y      HAL2     0.900000E-01   1.00800           0
      8671 MEMB     76       SAPC     C310     CTL2    -0.180000       12.0110           0
      8672 MEMB     76       SAPC     H10X     HAL2     0.900000E-01   1.00800           0
      8673 MEMB     76       SAPC     H10Y     HAL2     0.900000E-01   1.00800           0
      8674 MEMB     76       SAPC     C311     CTL2    -0.180000       12.0110           0
      8675 MEMB     76       SAPC     H11X     HAL2     0.900000E-01   1.00800           0
      8676 MEMB     76       SAPC     H11Y     HAL2     0.900000E-01   1.00800           0
      8677 MEMB     76       SAPC     C312     CTL2    -0.180000       12.0110           0
      8678 MEMB     76       SAPC     H12X     HAL2     0.900000E-01   1.00800           0
      8679 MEMB     76       SAPC     H12Y     HAL2     0.900000E-01   1.00800           0
      8680 MEMB     76       SAPC     C313     CTL2    -0.180000       12.0110           0
      8681 MEMB     76       SAPC     H13X     HAL2     0.900000E-01   1.00800           0
      8682 MEMB     76       SAPC     H13Y     HAL2     0.900000E-01   1.00800           0
      8683 MEMB     76       SAPC     C314     CTL2    -0.180000       12.0110           0
      8684 MEMB     76       SAPC     H14X     HAL2     0.900000E-01   1.00800           0
      8685 MEMB     76       SAPC     H14Y     HAL2     0.900000E-01   1.00800           0
      8686 MEMB     76       SAPC     C315     CTL2    -0.180000       12.0110           0
      8687 MEMB     76       SAPC     H15X     HAL2     0.900000E-01   1.00800           0
      8688 MEMB     76       SAPC     H15Y     HAL2     0.900000E-01   1.00800           0
      8689 MEMB     76       SAPC     C316     CTL2    -0.180000       12.0110           0
      8690 MEMB     76       SAPC     H16X     HAL2     0.900000E-01   1.00800           0
      8691 MEMB     76       SAPC     H16Y     HAL2     0.900000E-01   1.00800           0
      8692 MEMB     76       SAPC     C317     CTL2    -0.180000       12.0110           0
      8693 MEMB     76       SAPC     H17X     HAL2     0.900000E-01   1.00800           0
      8694 MEMB     76       SAPC     H17Y     HAL2     0.900000E-01   1.00800           0
      8695 MEMB     76       SAPC     C318     CTL3    -0.270000       12.0110           0
      8696 MEMB     76       SAPC     H18X     HAL3     0.900000E-01   1.00800           0
      8697 MEMB     76       SAPC     H18Y     HAL3     0.900000E-01   1.00800           0
      8698 MEMB     76       SAPC     H18Z     HAL3     0.900000E-01   1.00800           0
      8699 MEMB     77       OSM      N        NTL     -0.600000       14.0070           0
      8700 MEMB     77       OSM      C15      CTL5    -0.350000       12.0110           0
      8701 MEMB     77       OSM      H15A     HL       0.250000       1.00800           0
      8702 MEMB     77       OSM      H15B     HL       0.250000       1.00800           0
      8703 MEMB     77       OSM      H15C     HL       0.250000       1.00800           0
      8704 MEMB     77       OSM      C14      CTL5    -0.350000       12.0110           0
      8705 MEMB     77       OSM      H14A     HL       0.250000       1.00800           0
      8706 MEMB     77       OSM      H14B     HL       0.250000       1.00800           0
      8707 MEMB     77       OSM      H14C     HL       0.250000       1.00800           0
      8708 MEMB     77       OSM      C13      CTL5    -0.350000       12.0110           0
      8709 MEMB     77       OSM      H13A     HL       0.250000       1.00800           0
      8710 MEMB     77       OSM      H13B     HL       0.250000       1.00800           0
      8711 MEMB     77       OSM      H13C     HL       0.250000       1.00800           0
      8712 MEMB     77       OSM      C12      CTL2    -0.100000       12.0110           0
      8713 MEMB     77       OSM      H12A     HL       0.250000       1.00800           0
      8714 MEMB     77       OSM      H12B     HL       0.250000       1.00800           0
      8715 MEMB     77       OSM      C11      CTL2    -0.800000E-01   12.0110           0
      8716 MEMB     77       OSM      H11A     HAL2     0.900000E-01   1.00800           0
      8717 MEMB     77       OSM      H11B     HAL2     0.900000E-01   1.00800           0
      8718 MEMB     77       OSM      P        PL        1.50000       30.9740           0
      8719 MEMB     77       OSM      O13      O2L     -0.780000       15.9994           0
      8720 MEMB     77       OSM      O14      O2L     -0.780000       15.9994           0
      8721 MEMB     77       OSM      O11      OSLP    -0.570000       15.9994           0
      8722 MEMB     77       OSM      O12      OSLP    -0.570000       15.9994           0
      8723 MEMB     77       OSM      C1S      CTL2    -0.800000E-01   12.0110           0
      8724 MEMB     77       OSM      H1S      HAL2     0.900000E-01   1.00800           0
      8725 MEMB     77       OSM      H1T      HAL2     0.900000E-01   1.00800           0
      8726 MEMB     77       OSM      NF       NHL     -0.700000       14.0070           0
      8727 MEMB     77       OSM      HNF      H        0.350000       1.00800           0
      8728 MEMB     77       OSM      C2S      CTL1     0.300000       12.0110           0
      8729 MEMB     77       OSM      H2S      HAL1     0.500000E-01   1.00800           0
      8730 MEMB     77       OSM      C3S      CTO1     0.500000       12.0110           0
      8731 MEMB     77       OSM      H3S      HAL1    -0.110000       1.00800           0
      8732 MEMB     77       OSM      O3       OHL     -0.690000       15.9994           0
      8733 MEMB     77       OSM      HO3      HOL      0.300000       1.00800           0
      8734 MEMB     77       OSM      C4S      CEL3    -0.150000       12.0110           0
      8735 MEMB     77       OSM      H4S      HEL1     0.150000       1.00800           0
      8736 MEMB     77       OSM      C5S      CEL3    -0.150000       12.0110           0
      8737 MEMB     77       OSM      H5S      HEL1     0.150000       1.00800           0
      8738 MEMB     77       OSM      C6S      CTL2    -0.180000       12.0110           0
      8739 MEMB     77       OSM      H6S      HAL2     0.900000E-01   1.00800           0
      8740 MEMB     77       OSM      H6T      HAL2     0.900000E-01   1.00800           0
      8741 MEMB     77       OSM      C7S      CTL2    -0.180000       12.0110           0
      8742 MEMB     77       OSM      H7S      HAL2     0.900000E-01   1.00800           0
      8743 MEMB     77       OSM      H7T      HAL2     0.900000E-01   1.00800           0
      8744 MEMB     77       OSM      C8S      CTL2    -0.180000       12.0110           0
      8745 MEMB     77       OSM      H8S      HAL2     0.900000E-01   1.00800           0
      8746 MEMB     77       OSM      H8T      HAL2     0.900000E-01   1.00800           0
      8747 MEMB     77       OSM      C9S      CTL2    -0.180000       12.0110           0
      8748 MEMB     77       OSM      H9S      HAL2     0.900000E-01   1.00800           0
      8749 MEMB     77       OSM      H9T      HAL2     0.900000E-01   1.00800           0
      8750 MEMB     77       OSM      C10S     CTL2    -0.180000       12.0110           0
      8751 MEMB     77       OSM      H10S     HAL2     0.900000E-01   1.00800           0
      8752 MEMB     77       OSM      H10T     HAL2     0.900000E-01   1.00800           0
      8753 MEMB     77       OSM      C11S     CTL2    -0.180000       12.0110           0
      8754 MEMB     77       OSM      H11S     HAL2     0.900000E-01   1.00800           0
      8755 MEMB     77       OSM      H11T     HAL2     0.900000E-01   1.00800           0
      8756 MEMB     77       OSM      C12S     CTL2    -0.180000       12.0110           0
      8757 MEMB     77       OSM      H12S     HAL2     0.900000E-01   1.00800           0
      8758 MEMB     77       OSM      H12T     HAL2     0.900000E-01   1.00800           0
      8759 MEMB     77       OSM      C13S     CTL2    -0.180000       12.0110           0
      8760 MEMB     77       OSM      H13S     HAL2     0.900000E-01   1.00800           0
      8761 MEMB     77       OSM      H13T     HAL2     0.900000E-01   1.00800           0
      8762 MEMB     77       OSM      C14S     CTL2    -0.180000       12.0110           0
      8763 MEMB     77       OSM      H14S     HAL2     0.900000E-01   1.00800           0
      8764 MEMB     77       OSM      H14T     HAL2     0.900000E-01   1.00800           0
      8765 MEMB     77       OSM      C15S     CTL2    -0.180000       12.0110           0
      8766 MEMB     77       OSM      H15S     HAL2     0.900000E-01   1.00800           0
      8767 MEMB     77       OSM      H15T     HAL2     0.900000E-01   1.00800           0
      8768 MEMB     77       OSM      C16S     CTL2    -0.180000       12.0110           0
      8769 MEMB     77       OSM      H16S     HAL2     0.900000E-01   1.00800           0
      8770 MEMB     77       OSM      H16T     HAL2     0.900000E-01   1.00800           0
      8771 MEMB     77       OSM      C17S     CTL2    -0.180000       12.0110           0
      8772 MEMB     77       OSM      H17S     HAL2     0.900000E-01   1.00800           0
      8773 MEMB     77       OSM      H17T     HAL2     0.900000E-01   1.00800           0
      8774 MEMB     77       OSM      C18S     CTL3    -0.270000       12.0110           0
      8775 MEMB     77       OSM      H18S     HAL3     0.900000E-01   1.00800           0
      8776 MEMB     77       OSM      H18T     HAL3     0.900000E-01   1.00800           0
      8777 MEMB     77       OSM      H18U     HAL3     0.900000E-01   1.00800           0
      8778 MEMB     77       OSM      C1F      C        0.550000       12.0110           0
      8779 MEMB     77       OSM      OF       O       -0.600000       15.9994           0
      8780 MEMB     77       OSM      C2F      CTL2    -0.700000E-01   12.0110           0
      8781 MEMB     77       OSM      H2F      HAL2     0.600000E-01   1.00800           0
      8782 MEMB     77       OSM      H2G      HAL2     0.600000E-01   1.00800           0
      8783 MEMB     77       OSM      C3F      CTL2    -0.180000       12.0110           0
      8784 MEMB     77       OSM      H3F      HAL2     0.900000E-01   1.00800           0
      8785 MEMB     77       OSM      H3G      HAL2     0.900000E-01   1.00800           0
      8786 MEMB     77       OSM      C4F      CTL2    -0.180000       12.0110           0
      8787 MEMB     77       OSM      H4F      HAL2     0.900000E-01   1.00800           0
      8788 MEMB     77       OSM      H4G      HAL2     0.900000E-01   1.00800           0
      8789 MEMB     77       OSM      C5F      CTL2    -0.180000       12.0110           0
      8790 MEMB     77       OSM      H5F      HAL2     0.900000E-01   1.00800           0
      8791 MEMB     77       OSM      H5G      HAL2     0.900000E-01   1.00800           0
      8792 MEMB     77       OSM      C6F      CTL2    -0.180000       12.0110           0
      8793 MEMB     77       OSM      H6F      HAL2     0.900000E-01   1.00800           0
      8794 MEMB     77       OSM      H6G      HAL2     0.900000E-01   1.00800           0
      8795 MEMB     77       OSM      C7F      CTL2    -0.180000       12.0110           0
      8796 MEMB     77       OSM      H7F      HAL2     0.900000E-01   1.00800           0
      8797 MEMB     77       OSM      H7G      HAL2     0.900000E-01   1.00800           0
      8798 MEMB     77       OSM      C8F      CTL2    -0.180000       12.0110           0
      8799 MEMB     77       OSM      H8F      HAL2     0.900000E-01   1.00800           0
      8800 MEMB     77       OSM      H8G      HAL2     0.900000E-01   1.00800           0
      8801 MEMB     77       OSM      C9F      CEL1    -0.150000       12.0110           0
      8802 MEMB     77       OSM      H9F      HEL1     0.150000       1.00800           0
      8803 MEMB     77       OSM      C10F     CEL1    -0.150000       12.0110           0
      8804 MEMB     77       OSM      H10F     HEL1     0.150000       1.00800           0
      8805 MEMB     77       OSM      C11F     CTL2    -0.180000       12.0110           0
      8806 MEMB     77       OSM      H11F     HAL2     0.900000E-01   1.00800           0
      8807 MEMB     77       OSM      H11G     HAL2     0.900000E-01   1.00800           0
      8808 MEMB     77       OSM      C12F     CTL2    -0.180000       12.0110           0
      8809 MEMB     77       OSM      H12F     HAL2     0.900000E-01   1.00800           0
      8810 MEMB     77       OSM      H12G     HAL2     0.900000E-01   1.00800           0
      8811 MEMB     77       OSM      C13F     CTL2    -0.180000       12.0110           0
      8812 MEMB     77       OSM      H13F     HAL2     0.900000E-01   1.00800           0
      8813 MEMB     77       OSM      H13G     HAL2     0.900000E-01   1.00800           0
      8814 MEMB     77       OSM      C14F     CTL2    -0.180000       12.0110           0
      8815 MEMB     77       OSM      H14F     HAL2     0.900000E-01   1.00800           0
      8816 MEMB     77       OSM      H14G     HAL2     0.900000E-01   1.00800           0
      8817 MEMB     77       OSM      C15F     CTL2    -0.180000       12.0110           0
      8818 MEMB     77       OSM      H15F     HAL2     0.900000E-01   1.00800           0
      8819 MEMB     77       OSM      H15G     HAL2     0.900000E-01   1.00800           0
      8820 MEMB     77       OSM      C16F     CTL2    -0.180000       12.0110           0
      8821 MEMB     77       OSM      H16F     HAL2     0.900000E-01   1.00800           0
      8822 MEMB     77       OSM      H16G     HAL2     0.900000E-01   1.00800           0
      8823 MEMB     77       OSM      C17F     CTL2    -0.180000       12.0110           0
      8824 MEMB     77       OSM      H17F     HAL2     0.900000E-01   1.00800           0
      8825 MEMB     77       OSM      H17G     HAL2     0.900000E-01   1.00800           0
      8826 MEMB     77       OSM      C18F     CTL3    -0.270000       12.0110           0
      8827 MEMB     77       OSM      H18F     HAL3     0.900000E-01   1.00800           0
      8828 MEMB     77       OSM      H18G     HAL3     0.900000E-01   1.00800           0
      8829 MEMB     77       OSM      H18H     HAL3     0.900000E-01   1.00800           0
      8830 MEMB     78       SAPS     N        NH3L    -0.300000       14.0070           0
      8831 MEMB     78       SAPS     HN1      HCL      0.330000       1.00800           0
      8832 MEMB     78       SAPS     HN2      HCL      0.330000       1.00800           0
      8833 MEMB     78       SAPS     HN3      HCL      0.330000       1.00800           0
      8834 MEMB     78       SAPS     C12      CTL1     0.210000       12.0110           0
      8835 MEMB     78       SAPS     H12A     HBL      0.100000       1.00800           0
      8836 MEMB     78       SAPS     C13      CCL      0.340000       12.0110           0
      8837 MEMB     78       SAPS     O13A     OCL     -0.670000       15.9994           0
      8838 MEMB     78       SAPS     O13B     OCL     -0.670000       15.9994           0
      8839 MEMB     78       SAPS     C11      CTL2    -0.800000E-01   12.0110           0
      8840 MEMB     78       SAPS     H11A     HAL2     0.900000E-01   1.00800           0
      8841 MEMB     78       SAPS     H11B     HAL2     0.900000E-01   1.00800           0
      8842 MEMB     78       SAPS     P        PL        1.50000       30.9740           0
      8843 MEMB     78       SAPS     O13      O2L     -0.780000       15.9994           0
      8844 MEMB     78       SAPS     O14      O2L     -0.780000       15.9994           0
      8845 MEMB     78       SAPS     O12      OSLP    -0.570000       15.9994           0
      8846 MEMB     78       SAPS     O11      OSLP    -0.570000       15.9994           0
      8847 MEMB     78       SAPS     C1       CTL2    -0.800000E-01   12.0110           0
      8848 MEMB     78       SAPS     HA       HAL2     0.900000E-01   1.00800           0
      8849 MEMB     78       SAPS     HB       HAL2     0.900000E-01   1.00800           0
      8850 MEMB     78       SAPS     C2       CTL1     0.170000       12.0110           0
      8851 MEMB     78       SAPS     HS       HAL1     0.900000E-01   1.00800           0
      8852 MEMB     78       SAPS     O21      OSL     -0.490000       15.9994           0
      8853 MEMB     78       SAPS     C21      CL       0.900000       12.0110           0
      8854 MEMB     78       SAPS     O22      OBL     -0.630000       15.9994           0
      8855 MEMB     78       SAPS     C22      CTL2    -0.220000       12.0110           0
      8856 MEMB     78       SAPS     H2R      HAL2     0.900000E-01   1.00800           0
      8857 MEMB     78       SAPS     H2S      HAL2     0.900000E-01   1.00800           0
      8858 MEMB     78       SAPS     C3       CTL2     0.800000E-01   12.0110           0
      8859 MEMB     78       SAPS     HX       HAL2     0.900000E-01   1.00800           0
      8860 MEMB     78       SAPS     HY       HAL2     0.900000E-01   1.00800           0
      8861 MEMB     78       SAPS     O31      OSL     -0.490000       15.9994           0
      8862 MEMB     78       SAPS     C31      CL       0.900000       12.0110           0
      8863 MEMB     78       SAPS     O32      OBL     -0.630000       15.9994           0
      8864 MEMB     78       SAPS     C32      CTL2    -0.220000       12.0110           0
      8865 MEMB     78       SAPS     H2X      HAL2     0.900000E-01   1.00800           0
      8866 MEMB     78       SAPS     H2Y      HAL2     0.900000E-01   1.00800           0
      8867 MEMB     78       SAPS     C23      CTL2    -0.180000       12.0110           0
      8868 MEMB     78       SAPS     H3R      HAL2     0.900000E-01   1.00800           0
      8869 MEMB     78       SAPS     H3S      HAL2     0.900000E-01   1.00800           0
      8870 MEMB     78       SAPS     C24      CTL2    -0.180000       12.0110           0
      8871 MEMB     78       SAPS     H4R      HAL2     0.900000E-01   1.00800           0
      8872 MEMB     78       SAPS     H4S      HAL2     0.900000E-01   1.00800           0
      8873 MEMB     78       SAPS     C25      CEL1    -0.150000       12.0110           0
      8874 MEMB     78       SAPS     H5R      HEL1     0.150000       1.00800           0
      8875 MEMB     78       SAPS     C26      CEL1    -0.150000       12.0110           0
      8876 MEMB     78       SAPS     H6R      HEL1     0.150000       1.00800           0
      8877 MEMB     78       SAPS     C27      CTL2    -0.180000       12.0110           0
      8878 MEMB     78       SAPS     H7R      HAL2     0.900000E-01   1.00800           0
      8879 MEMB     78       SAPS     H7S      HAL2     0.900000E-01   1.00800           0
      8880 MEMB     78       SAPS     C28      CEL1    -0.150000       12.0110           0
      8881 MEMB     78       SAPS     H8R      HEL1     0.150000       1.00800           0
      8882 MEMB     78       SAPS     C29      CEL1    -0.150000       12.0110           0
      8883 MEMB     78       SAPS     H9R      HEL1     0.150000       1.00800           0
      8884 MEMB     78       SAPS     C210     CTL2    -0.180000       12.0110           0
      8885 MEMB     78       SAPS     H10R     HAL2     0.900000E-01   1.00800           0
      8886 MEMB     78       SAPS     H10S     HAL2     0.900000E-01   1.00800           0
      8887 MEMB     78       SAPS     C211     CEL1    -0.150000       12.0110           0
      8888 MEMB     78       SAPS     H11R     HEL1     0.150000       1.00800           0
      8889 MEMB     78       SAPS     C212     CEL1    -0.150000       12.0110           0
      8890 MEMB     78       SAPS     H12R     HEL1     0.150000       1.00800           0
      8891 MEMB     78       SAPS     C213     CTL2    -0.180000       12.0110           0
      8892 MEMB     78       SAPS     H13R     HAL2     0.900000E-01   1.00800           0
      8893 MEMB     78       SAPS     H13S     HAL2     0.900000E-01   1.00800           0
      8894 MEMB     78       SAPS     C214     CEL1    -0.150000       12.0110           0
      8895 MEMB     78       SAPS     H14R     HEL1     0.150000       1.00800           0
      8896 MEMB     78       SAPS     C215     CEL1    -0.150000       12.0110           0
      8897 MEMB     78       SAPS     H15R     HEL1     0.150000       1.00800           0
      8898 MEMB     78       SAPS     C216     CTL2    -0.180000       12.0110           0
      8899 MEMB     78       SAPS     H16R     HAL2     0.900000E-01   1.00800           0
      8900 MEMB     78       SAPS     H16S     HAL2     0.900000E-01   1.00800           0
      8901 MEMB     78       SAPS     C217     CTL2    -0.180000       12.0110           0
      8902 MEMB     78       SAPS     H17R     HAL2     0.900000E-01   1.00800           0
      8903 MEMB     78       SAPS     H17S     HAL2     0.900000E-01   1.00800           0
      8904 MEMB     78       SAPS     C218     CTL2    -0.180000       12.0110           0
      8905 MEMB     78       SAPS     H18R     HAL2     0.900000E-01   1.00800           0
      8906 MEMB     78       SAPS     H18S     HAL2     0.900000E-01   1.00800           0
      8907 MEMB     78       SAPS     C219     CTL2    -0.180000       12.0110           0
      8908 MEMB     78       SAPS     H19R     HAL2     0.900000E-01   1.00800           0
      8909 MEMB     78       SAPS     H19S     HAL2     0.900000E-01   1.00800           0
      8910 MEMB     78       SAPS     C220     CTL3    -0.270000       12.0110           0
      8911 MEMB     78       SAPS     H20R     HAL3     0.900000E-01   1.00800           0
      8912 MEMB     78       SAPS     H20S     HAL3     0.900000E-01   1.00800           0
      8913 MEMB     78       SAPS     H20T     HAL3     0.900000E-01   1.00800           0
      8914 MEMB     78       SAPS     C33      CTL2    -0.180000       12.0110           0
      8915 MEMB     78       SAPS     H3X      HAL2     0.900000E-01   1.00800           0
      8916 MEMB     78       SAPS     H3Y      HAL2     0.900000E-01   1.00800           0
      8917 MEMB     78       SAPS     C34      CTL2    -0.180000       12.0110           0
      8918 MEMB     78       SAPS     H4X      HAL2     0.900000E-01   1.00800           0
      8919 MEMB     78       SAPS     H4Y      HAL2     0.900000E-01   1.00800           0
      8920 MEMB     78       SAPS     C35      CTL2    -0.180000       12.0110           0
      8921 MEMB     78       SAPS     H5X      HAL2     0.900000E-01   1.00800           0
      8922 MEMB     78       SAPS     H5Y      HAL2     0.900000E-01   1.00800           0
      8923 MEMB     78       SAPS     C36      CTL2    -0.180000       12.0110           0
      8924 MEMB     78       SAPS     H6X      HAL2     0.900000E-01   1.00800           0
      8925 MEMB     78       SAPS     H6Y      HAL2     0.900000E-01   1.00800           0
      8926 MEMB     78       SAPS     C37      CTL2    -0.180000       12.0110           0
      8927 MEMB     78       SAPS     H7X      HAL2     0.900000E-01   1.00800           0
      8928 MEMB     78       SAPS     H7Y      HAL2     0.900000E-01   1.00800           0
      8929 MEMB     78       SAPS     C38      CTL2    -0.180000       12.0110           0
      8930 MEMB     78       SAPS     H8X      HAL2     0.900000E-01   1.00800           0
      8931 MEMB     78       SAPS     H8Y      HAL2     0.900000E-01   1.00800           0
      8932 MEMB     78       SAPS     C39      CTL2    -0.180000       12.0110           0
      8933 MEMB     78       SAPS     H9X      HAL2     0.900000E-01   1.00800           0
      8934 MEMB     78       SAPS     H9Y      HAL2     0.900000E-01   1.00800           0
      8935 MEMB     78       SAPS     C310     CTL2    -0.180000       12.0110           0
      8936 MEMB     78       SAPS     H10X     HAL2     0.900000E-01   1.00800           0
      8937 MEMB     78       SAPS     H10Y     HAL2     0.900000E-01   1.00800           0
      8938 MEMB     78       SAPS     C311     CTL2    -0.180000       12.0110           0
      8939 MEMB     78       SAPS     H11X     HAL2     0.900000E-01   1.00800           0
      8940 MEMB     78       SAPS     H11Y     HAL2     0.900000E-01   1.00800           0
      8941 MEMB     78       SAPS     C312     CTL2    -0.180000       12.0110           0
      8942 MEMB     78       SAPS     H12X     HAL2     0.900000E-01   1.00800           0
      8943 MEMB     78       SAPS     H12Y     HAL2     0.900000E-01   1.00800           0
      8944 MEMB     78       SAPS     C313     CTL2    -0.180000       12.0110           0
      8945 MEMB     78       SAPS     H13X     HAL2     0.900000E-01   1.00800           0
      8946 MEMB     78       SAPS     H13Y     HAL2     0.900000E-01   1.00800           0
      8947 MEMB     78       SAPS     C314     CTL2    -0.180000       12.0110           0
      8948 MEMB     78       SAPS     H14X     HAL2     0.900000E-01   1.00800           0
      8949 MEMB     78       SAPS     H14Y     HAL2     0.900000E-01   1.00800           0
      8950 MEMB     78       SAPS     C315     CTL2    -0.180000       12.0110           0
      8951 MEMB     78       SAPS     H15X     HAL2     0.900000E-01   1.00800           0
      8952 MEMB     78       SAPS     H15Y     HAL2     0.900000E-01   1.00800           0
      8953 MEMB     78       SAPS     C316     CTL2    -0.180000       12.0110           0
      8954 MEMB     78       SAPS     H16X     HAL2     0.900000E-01   1.00800           0
      8955 MEMB     78       SAPS     H16Y     HAL2     0.900000E-01   1.00800           0
      8956 MEMB     78       SAPS     C317     CTL2    -0.180000       12.0110           0
      8957 MEMB     78       SAPS     H17X     HAL2     0.900000E-01   1.00800           0
      8958 MEMB     78       SAPS     H17Y     HAL2     0.900000E-01   1.00800           0
      8959 MEMB     78       SAPS     C318     CTL3    -0.270000       12.0110           0
      8960 MEMB     78       SAPS     H18X     HAL3     0.900000E-01   1.00800           0
      8961 MEMB     78       SAPS     H18Y     HAL3     0.900000E-01   1.00800           0
      8962 MEMB     78       SAPS     H18Z     HAL3     0.900000E-01   1.00800           0
      8963 MEMB     79       SAPS     N        NH3L    -0.300000       14.0070           0
      8964 MEMB     79       SAPS     HN1      HCL      0.330000       1.00800           0
      8965 MEMB     79       SAPS     HN2      HCL      0.330000       1.00800           0
      8966 MEMB     79       SAPS     HN3      HCL      0.330000       1.00800           0
      8967 MEMB     79       SAPS     C12      CTL1     0.210000       12.0110           0
      8968 MEMB     79       SAPS     H12A     HBL      0.100000       1.00800           0
      8969 MEMB     79       SAPS     C13      CCL      0.340000       12.0110           0
      8970 MEMB     79       SAPS     O13A     OCL     -0.670000       15.9994           0
      8971 MEMB     79       SAPS     O13B     OCL     -0.670000       15.9994           0
      8972 MEMB     79       SAPS     C11      CTL2    -0.800000E-01   12.0110           0
      8973 MEMB     79       SAPS     H11A     HAL2     0.900000E-01   1.00800           0
      8974 MEMB     79       SAPS     H11B     HAL2     0.900000E-01   1.00800           0
      8975 MEMB     79       SAPS     P        PL        1.50000       30.9740           0
      8976 MEMB     79       SAPS     O13      O2L     -0.780000       15.9994           0
      8977 MEMB     79       SAPS     O14      O2L     -0.780000       15.9994           0
      8978 MEMB     79       SAPS     O12      OSLP    -0.570000       15.9994           0
      8979 MEMB     79       SAPS     O11      OSLP    -0.570000       15.9994           0
      8980 MEMB     79       SAPS     C1       CTL2    -0.800000E-01   12.0110           0
      8981 MEMB     79       SAPS     HA       HAL2     0.900000E-01   1.00800           0
      8982 MEMB     79       SAPS     HB       HAL2     0.900000E-01   1.00800           0
      8983 MEMB     79       SAPS     C2       CTL1     0.170000       12.0110           0
      8984 MEMB     79       SAPS     HS       HAL1     0.900000E-01   1.00800           0
      8985 MEMB     79       SAPS     O21      OSL     -0.490000       15.9994           0
      8986 MEMB     79       SAPS     C21      CL       0.900000       12.0110           0
      8987 MEMB     79       SAPS     O22      OBL     -0.630000       15.9994           0
      8988 MEMB     79       SAPS     C22      CTL2    -0.220000       12.0110           0
      8989 MEMB     79       SAPS     H2R      HAL2     0.900000E-01   1.00800           0
      8990 MEMB     79       SAPS     H2S      HAL2     0.900000E-01   1.00800           0
      8991 MEMB     79       SAPS     C3       CTL2     0.800000E-01   12.0110           0
      8992 MEMB     79       SAPS     HX       HAL2     0.900000E-01   1.00800           0
      8993 MEMB     79       SAPS     HY       HAL2     0.900000E-01   1.00800           0
      8994 MEMB     79       SAPS     O31      OSL     -0.490000       15.9994           0
      8995 MEMB     79       SAPS     C31      CL       0.900000       12.0110           0
      8996 MEMB     79       SAPS     O32      OBL     -0.630000       15.9994           0
      8997 MEMB     79       SAPS     C32      CTL2    -0.220000       12.0110           0
      8998 MEMB     79       SAPS     H2X      HAL2     0.900000E-01   1.00800           0
      8999 MEMB     79       SAPS     H2Y      HAL2     0.900000E-01   1.00800           0
      9000 MEMB     79       SAPS     C23      CTL2    -0.180000       12.0110           0
      9001 MEMB     79       SAPS     H3R      HAL2     0.900000E-01   1.00800           0
      9002 MEMB     79       SAPS     H3S      HAL2     0.900000E-01   1.00800           0
      9003 MEMB     79       SAPS     C24      CTL2    -0.180000       12.0110           0
      9004 MEMB     79       SAPS     H4R      HAL2     0.900000E-01   1.00800           0
      9005 MEMB     79       SAPS     H4S      HAL2     0.900000E-01   1.00800           0
      9006 MEMB     79       SAPS     C25      CEL1    -0.150000       12.0110           0
      9007 MEMB     79       SAPS     H5R      HEL1     0.150000       1.00800           0
      9008 MEMB     79       SAPS     C26      CEL1    -0.150000       12.0110           0
      9009 MEMB     79       SAPS     H6R      HEL1     0.150000       1.00800           0
      9010 MEMB     79       SAPS     C27      CTL2    -0.180000       12.0110           0
      9011 MEMB     79       SAPS     H7R      HAL2     0.900000E-01   1.00800           0
      9012 MEMB     79       SAPS     H7S      HAL2     0.900000E-01   1.00800           0
      9013 MEMB     79       SAPS     C28      CEL1    -0.150000       12.0110           0
      9014 MEMB     79       SAPS     H8R      HEL1     0.150000       1.00800           0
      9015 MEMB     79       SAPS     C29      CEL1    -0.150000       12.0110           0
      9016 MEMB     79       SAPS     H9R      HEL1     0.150000       1.00800           0
      9017 MEMB     79       SAPS     C210     CTL2    -0.180000       12.0110           0
      9018 MEMB     79       SAPS     H10R     HAL2     0.900000E-01   1.00800           0
      9019 MEMB     79       SAPS     H10S     HAL2     0.900000E-01   1.00800           0
      9020 MEMB     79       SAPS     C211     CEL1    -0.150000       12.0110           0
      9021 MEMB     79       SAPS     H11R     HEL1     0.150000       1.00800           0
      9022 MEMB     79       SAPS     C212     CEL1    -0.150000       12.0110           0
      9023 MEMB     79       SAPS     H12R     HEL1     0.150000       1.00800           0
      9024 MEMB     79       SAPS     C213     CTL2    -0.180000       12.0110           0
      9025 MEMB     79       SAPS     H13R     HAL2     0.900000E-01   1.00800           0
      9026 MEMB     79       SAPS     H13S     HAL2     0.900000E-01   1.00800           0
      9027 MEMB     79       SAPS     C214     CEL1    -0.150000       12.0110           0
      9028 MEMB     79       SAPS     H14R     HEL1     0.150000       1.00800           0
      9029 MEMB     79       SAPS     C215     CEL1    -0.150000       12.0110           0
      9030 MEMB     79       SAPS     H15R     HEL1     0.150000       1.00800           0
      9031 MEMB     79       SAPS     C216     CTL2    -0.180000       12.0110           0
      9032 MEMB     79       SAPS     H16R     HAL2     0.900000E-01   1.00800           0
      9033 MEMB     79       SAPS     H16S     HAL2     0.900000E-01   1.00800           0
      9034 MEMB     79       SAPS     C217     CTL2    -0.180000       12.0110           0
      9035 MEMB     79       SAPS     H17R     HAL2     0.900000E-01   1.00800           0
      9036 MEMB     79       SAPS     H17S     HAL2     0.900000E-01   1.00800           0
      9037 MEMB     79       SAPS     C218     CTL2    -0.180000       12.0110           0
      9038 MEMB     79       SAPS     H18R     HAL2     0.900000E-01   1.00800           0
      9039 MEMB     79       SAPS     H18S     HAL2     0.900000E-01   1.00800           0
      9040 MEMB     79       SAPS     C219     CTL2    -0.180000       12.0110           0
      9041 MEMB     79       SAPS     H19R     HAL2     0.900000E-01   1.00800           0
      9042 MEMB     79       SAPS     H19S     HAL2     0.900000E-01   1.00800           0
      9043 MEMB     79       SAPS     C220     CTL3    -0.270000       12.0110           0
      9044 MEMB     79       SAPS     H20R     HAL3     0.900000E-01   1.00800           0
      9045 MEMB     79       SAPS     H20S     HAL3     0.900000E-01   1.00800           0
      9046 MEMB     79       SAPS     H20T     HAL3     0.900000E-01   1.00800           0
      9047 MEMB     79       SAPS     C33      CTL2    -0.180000       12.0110           0
      9048 MEMB     79       SAPS     H3X      HAL2     0.900000E-01   1.00800           0
      9049 MEMB     79       SAPS     H3Y      HAL2     0.900000E-01   1.00800           0
      9050 MEMB     79       SAPS     C34      CTL2    -0.180000       12.0110           0
      9051 MEMB     79       SAPS     H4X      HAL2     0.900000E-01   1.00800           0
      9052 MEMB     79       SAPS     H4Y      HAL2     0.900000E-01   1.00800           0
      9053 MEMB     79       SAPS     C35      CTL2    -0.180000       12.0110           0
      9054 MEMB     79       SAPS     H5X      HAL2     0.900000E-01   1.00800           0
      9055 MEMB     79       SAPS     H5Y      HAL2     0.900000E-01   1.00800           0
      9056 MEMB     79       SAPS     C36      CTL2    -0.180000       12.0110           0
      9057 MEMB     79       SAPS     H6X      HAL2     0.900000E-01   1.00800           0
      9058 MEMB     79       SAPS     H6Y      HAL2     0.900000E-01   1.00800           0
      9059 MEMB     79       SAPS     C37      CTL2    -0.180000       12.0110           0
      9060 MEMB     79       SAPS     H7X      HAL2     0.900000E-01   1.00800           0
      9061 MEMB     79       SAPS     H7Y      HAL2     0.900000E-01   1.00800           0
      9062 MEMB     79       SAPS     C38      CTL2    -0.180000       12.0110           0
      9063 MEMB     79       SAPS     H8X      HAL2     0.900000E-01   1.00800           0
      9064 MEMB     79       SAPS     H8Y      HAL2     0.900000E-01   1.00800           0
      9065 MEMB     79       SAPS     C39      CTL2    -0.180000       12.0110           0
      9066 MEMB     79       SAPS     H9X      HAL2     0.900000E-01   1.00800           0
      9067 MEMB     79       SAPS     H9Y      HAL2     0.900000E-01   1.00800           0
      9068 MEMB     79       SAPS     C310     CTL2    -0.180000       12.0110           0
      9069 MEMB     79       SAPS     H10X     HAL2     0.900000E-01   1.00800           0
      9070 MEMB     79       SAPS     H10Y     HAL2     0.900000E-01   1.00800           0
      9071 MEMB     79       SAPS     C311     CTL2    -0.180000       12.0110           0
      9072 MEMB     79       SAPS     H11X     HAL2     0.900000E-01   1.00800           0
      9073 MEMB     79       SAPS     H11Y     HAL2     0.900000E-01   1.00800           0
      9074 MEMB     79       SAPS     C312     CTL2    -0.180000       12.0110           0
      9075 MEMB     79       SAPS     H12X     HAL2     0.900000E-01   1.00800           0
      9076 MEMB     79       SAPS     H12Y     HAL2     0.900000E-01   1.00800           0
      9077 MEMB     79       SAPS     C313     CTL2    -0.180000       12.0110           0
      9078 MEMB     79       SAPS     H13X     HAL2     0.900000E-01   1.00800           0
      9079 MEMB     79       SAPS     H13Y     HAL2     0.900000E-01   1.00800           0
      9080 MEMB     79       SAPS     C314     CTL2    -0.180000       12.0110           0
      9081 MEMB     79       SAPS     H14X     HAL2     0.900000E-01   1.00800           0
      9082 MEMB     79       SAPS     H14Y     HAL2     0.900000E-01   1.00800           0
      9083 MEMB     79       SAPS     C315     CTL2    -0.180000       12.0110           0
      9084 MEMB     79       SAPS     H15X     HAL2     0.900000E-01   1.00800           0
      9085 MEMB     79       SAPS     H15Y     HAL2     0.900000E-01   1.00800           0
      9086 MEMB     79       SAPS     C316     CTL2    -0.180000       12.0110           0
      9087 MEMB     79       SAPS     H16X     HAL2     0.900000E-01   1.00800           0
      9088 MEMB     79       SAPS     H16Y     HAL2     0.900000E-01   1.00800           0
      9089 MEMB     79       SAPS     C317     CTL2    -0.180000       12.0110           0
      9090 MEMB     79       SAPS     H17X     HAL2     0.900000E-01   1.00800           0
      9091 MEMB     79       SAPS     H17Y     HAL2     0.900000E-01   1.00800           0
      9092 MEMB     79       SAPS     C318     CTL3    -0.270000       12.0110           0
      9093 MEMB     79       SAPS     H18X     HAL3     0.900000E-01   1.00800           0
      9094 MEMB     79       SAPS     H18Y     HAL3     0.900000E-01   1.00800           0
      9095 MEMB     79       SAPS     H18Z     HAL3     0.900000E-01   1.00800           0
      9096 MEMB     80       CHL1     C3       CRL1     0.140000       12.0110           0
      9097 MEMB     80       CHL1     H3       HGA1     0.900000E-01   1.00800           0
      9098 MEMB     80       CHL1     O3       OHL     -0.660000       15.9994           0
      9099 MEMB     80       CHL1     H3'      HOL      0.430000       1.00800           0
      9100 MEMB     80       CHL1     C4       CRL2    -0.180000       12.0110           0
      9101 MEMB     80       CHL1     H4A      HGA2     0.900000E-01   1.00800           0
      9102 MEMB     80       CHL1     H4B      HGA2     0.900000E-01   1.00800           0
      9103 MEMB     80       CHL1     C5       CEL1      0.00000       12.0110           0
      9104 MEMB     80       CHL1     C6       CEL1    -0.150000       12.0110           0
      9105 MEMB     80       CHL1     H6       HEL1     0.150000       1.00800           0
      9106 MEMB     80       CHL1     C7       CRL2    -0.180000       12.0110           0
      9107 MEMB     80       CHL1     H7A      HGA2     0.900000E-01   1.00800           0
      9108 MEMB     80       CHL1     H7B      HGA2     0.900000E-01   1.00800           0
      9109 MEMB     80       CHL1     C8       CRL1    -0.900000E-01   12.0110           0
      9110 MEMB     80       CHL1     H8       HGA1     0.900000E-01   1.00800           0
      9111 MEMB     80       CHL1     C14      CRL1    -0.900000E-01   12.0110           0
      9112 MEMB     80       CHL1     H14      HGA1     0.900000E-01   1.00800           0
      9113 MEMB     80       CHL1     C15      CRL2    -0.180000       12.0110           0
      9114 MEMB     80       CHL1     H15A     HGA2     0.900000E-01   1.00800           0
      9115 MEMB     80       CHL1     H15B     HGA2     0.900000E-01   1.00800           0
      9116 MEMB     80       CHL1     C16      CRL2    -0.180000       12.0110           0
      9117 MEMB     80       CHL1     H16A     HGA2     0.900000E-01   1.00800           0
      9118 MEMB     80       CHL1     H16B     HGA2     0.900000E-01   1.00800           0
      9119 MEMB     80       CHL1     C17      CRL1    -0.900000E-01   12.0110           0
      9120 MEMB     80       CHL1     H17      HGA1     0.900000E-01   1.00800           0
      9121 MEMB     80       CHL1     C13      CRL1      0.00000       12.0110           0
      9122 MEMB     80       CHL1     C18      CTL3    -0.270000       12.0110           0
      9123 MEMB     80       CHL1     H18A     HAL3     0.900000E-01   1.00800           0
      9124 MEMB     80       CHL1     H18B     HAL3     0.900000E-01   1.00800           0
      9125 MEMB     80       CHL1     H18C     HAL3     0.900000E-01   1.00800           0
      9126 MEMB     80       CHL1     C12      CRL2    -0.180000       12.0110           0
      9127 MEMB     80       CHL1     H12A     HGA2     0.900000E-01   1.00800           0
      9128 MEMB     80       CHL1     H12B     HGA2     0.900000E-01   1.00800           0
      9129 MEMB     80       CHL1     C11      CRL2    -0.180000       12.0110           0
      9130 MEMB     80       CHL1     H11A     HGA2     0.900000E-01   1.00800           0
      9131 MEMB     80       CHL1     H11B     HGA2     0.900000E-01   1.00800           0
      9132 MEMB     80       CHL1     C9       CRL1    -0.900000E-01   12.0110           0
      9133 MEMB     80       CHL1     H9       HGA1     0.900000E-01   1.00800           0
      9134 MEMB     80       CHL1     C10      CRL1      0.00000       12.0110           0
      9135 MEMB     80       CHL1     C19      CTL3    -0.270000       12.0110           0
      9136 MEMB     80       CHL1     H19A     HAL3     0.900000E-01   1.00800           0
      9137 MEMB     80       CHL1     H19B     HAL3     0.900000E-01   1.00800           0
      9138 MEMB     80       CHL1     H19C     HAL3     0.900000E-01   1.00800           0
      9139 MEMB     80       CHL1     C1       CRL2    -0.180000       12.0110           0
      9140 MEMB     80       CHL1     H1A      HGA2     0.900000E-01   1.00800           0
      9141 MEMB     80       CHL1     H1B      HGA2     0.900000E-01   1.00800           0
      9142 MEMB     80       CHL1     C2       CRL2    -0.180000       12.0110           0
      9143 MEMB     80       CHL1     H2A      HGA2     0.900000E-01   1.00800           0
      9144 MEMB     80       CHL1     H2B      HGA2     0.900000E-01   1.00800           0
      9145 MEMB     80       CHL1     C20      CTL1    -0.900000E-01   12.0110           0
      9146 MEMB     80       CHL1     H20      HAL1     0.900000E-01   1.00800           0
      9147 MEMB     80       CHL1     C21      CTL3    -0.270000       12.0110           0
      9148 MEMB     80       CHL1     H21A     HAL3     0.900000E-01   1.00800           0
      9149 MEMB     80       CHL1     H21B     HAL3     0.900000E-01   1.00800           0
      9150 MEMB     80       CHL1     H21C     HAL3     0.900000E-01   1.00800           0
      9151 MEMB     80       CHL1     C22      CTL2    -0.180000       12.0110           0
      9152 MEMB     80       CHL1     H22A     HAL2     0.900000E-01   1.00800           0
      9153 MEMB     80       CHL1     H22B     HAL2     0.900000E-01   1.00800           0
      9154 MEMB     80       CHL1     C23      CTL2    -0.180000       12.0110           0
      9155 MEMB     80       CHL1     H23A     HAL2     0.900000E-01   1.00800           0
      9156 MEMB     80       CHL1     H23B     HAL2     0.900000E-01   1.00800           0
      9157 MEMB     80       CHL1     C24      CTL2    -0.180000       12.0110           0
      9158 MEMB     80       CHL1     H24A     HAL2     0.900000E-01   1.00800           0
      9159 MEMB     80       CHL1     H24B     HAL2     0.900000E-01   1.00800           0
      9160 MEMB     80       CHL1     C25      CTL1    -0.900000E-01   12.0110           0
      9161 MEMB     80       CHL1     H25      HAL1     0.900000E-01   1.00800           0
      9162 MEMB     80       CHL1     C26      CTL3    -0.270000       12.0110           0
      9163 MEMB     80       CHL1     H26A     HAL3     0.900000E-01   1.00800           0
      9164 MEMB     80       CHL1     H26B     HAL3     0.900000E-01   1.00800           0
      9165 MEMB     80       CHL1     H26C     HAL3     0.900000E-01   1.00800           0
      9166 MEMB     80       CHL1     C27      CTL3    -0.270000       12.0110           0
      9167 MEMB     80       CHL1     H27A     HAL3     0.900000E-01   1.00800           0
      9168 MEMB     80       CHL1     H27B     HAL3     0.900000E-01   1.00800           0
      9169 MEMB     80       CHL1     H27C     HAL3     0.900000E-01   1.00800           0
      9170 MEMB     81       CHL1     C3       CRL1     0.140000       12.0110           0
      9171 MEMB     81       CHL1     H3       HGA1     0.900000E-01   1.00800           0
      9172 MEMB     81       CHL1     O3       OHL     -0.660000       15.9994           0
      9173 MEMB     81       CHL1     H3'      HOL      0.430000       1.00800           0
      9174 MEMB     81       CHL1     C4       CRL2    -0.180000       12.0110           0
      9175 MEMB     81       CHL1     H4A      HGA2     0.900000E-01   1.00800           0
      9176 MEMB     81       CHL1     H4B      HGA2     0.900000E-01   1.00800           0
      9177 MEMB     81       CHL1     C5       CEL1      0.00000       12.0110           0
      9178 MEMB     81       CHL1     C6       CEL1    -0.150000       12.0110           0
      9179 MEMB     81       CHL1     H6       HEL1     0.150000       1.00800           0
      9180 MEMB     81       CHL1     C7       CRL2    -0.180000       12.0110           0
      9181 MEMB     81       CHL1     H7A      HGA2     0.900000E-01   1.00800           0
      9182 MEMB     81       CHL1     H7B      HGA2     0.900000E-01   1.00800           0
      9183 MEMB     81       CHL1     C8       CRL1    -0.900000E-01   12.0110           0
      9184 MEMB     81       CHL1     H8       HGA1     0.900000E-01   1.00800           0
      9185 MEMB     81       CHL1     C14      CRL1    -0.900000E-01   12.0110           0
      9186 MEMB     81       CHL1     H14      HGA1     0.900000E-01   1.00800           0
      9187 MEMB     81       CHL1     C15      CRL2    -0.180000       12.0110           0
      9188 MEMB     81       CHL1     H15A     HGA2     0.900000E-01   1.00800           0
      9189 MEMB     81       CHL1     H15B     HGA2     0.900000E-01   1.00800           0
      9190 MEMB     81       CHL1     C16      CRL2    -0.180000       12.0110           0
      9191 MEMB     81       CHL1     H16A     HGA2     0.900000E-01   1.00800           0
      9192 MEMB     81       CHL1     H16B     HGA2     0.900000E-01   1.00800           0
      9193 MEMB     81       CHL1     C17      CRL1    -0.900000E-01   12.0110           0
      9194 MEMB     81       CHL1     H17      HGA1     0.900000E-01   1.00800           0
      9195 MEMB     81       CHL1     C13      CRL1      0.00000       12.0110           0
      9196 MEMB     81       CHL1     C18      CTL3    -0.270000       12.0110           0
      9197 MEMB     81       CHL1     H18A     HAL3     0.900000E-01   1.00800           0
      9198 MEMB     81       CHL1     H18B     HAL3     0.900000E-01   1.00800           0
      9199 MEMB     81       CHL1     H18C     HAL3     0.900000E-01   1.00800           0
      9200 MEMB     81       CHL1     C12      CRL2    -0.180000       12.0110           0
      9201 MEMB     81       CHL1     H12A     HGA2     0.900000E-01   1.00800           0
      9202 MEMB     81       CHL1     H12B     HGA2     0.900000E-01   1.00800           0
      9203 MEMB     81       CHL1     C11      CRL2    -0.180000       12.0110           0
      9204 MEMB     81       CHL1     H11A     HGA2     0.900000E-01   1.00800           0
      9205 MEMB     81       CHL1     H11B     HGA2     0.900000E-01   1.00800           0
      9206 MEMB     81       CHL1     C9       CRL1    -0.900000E-01   12.0110           0
      9207 MEMB     81       CHL1     H9       HGA1     0.900000E-01   1.00800           0
      9208 MEMB     81       CHL1     C10      CRL1      0.00000       12.0110           0
      9209 MEMB     81       CHL1     C19      CTL3    -0.270000       12.0110           0
      9210 MEMB     81       CHL1     H19A     HAL3     0.900000E-01   1.00800           0
      9211 MEMB     81       CHL1     H19B     HAL3     0.900000E-01   1.00800           0
      9212 MEMB     81       CHL1     H19C     HAL3     0.900000E-01   1.00800           0
      9213 MEMB     81       CHL1     C1       CRL2    -0.180000       12.0110           0
      9214 MEMB     81       CHL1     H1A      HGA2     0.900000E-01   1.00800           0
      9215 MEMB     81       CHL1     H1B      HGA2     0.900000E-01   1.00800           0
      9216 MEMB     81       CHL1     C2       CRL2    -0.180000       12.0110           0
      9217 MEMB     81       CHL1     H2A      HGA2     0.900000E-01   1.00800           0
      9218 MEMB     81       CHL1     H2B      HGA2     0.900000E-01   1.00800           0
      9219 MEMB     81       CHL1     C20      CTL1    -0.900000E-01   12.0110           0
      9220 MEMB     81       CHL1     H20      HAL1     0.900000E-01   1.00800           0
      9221 MEMB     81       CHL1     C21      CTL3    -0.270000       12.0110           0
      9222 MEMB     81       CHL1     H21A     HAL3     0.900000E-01   1.00800           0
      9223 MEMB     81       CHL1     H21B     HAL3     0.900000E-01   1.00800           0
      9224 MEMB     81       CHL1     H21C     HAL3     0.900000E-01   1.00800           0
      9225 MEMB     81       CHL1     C22      CTL2    -0.180000       12.0110           0
      9226 MEMB     81       CHL1     H22A     HAL2     0.900000E-01   1.00800           0
      9227 MEMB     81       CHL1     H22B     HAL2     0.900000E-01   1.00800           0
      9228 MEMB     81       CHL1     C23      CTL2    -0.180000       12.0110           0
      9229 MEMB     81       CHL1     H23A     HAL2     0.900000E-01   1.00800           0
      9230 MEMB     81       CHL1     H23B     HAL2     0.900000E-01   1.00800           0
      9231 MEMB     81       CHL1     C24      CTL2    -0.180000       12.0110           0
      9232 MEMB     81       CHL1     H24A     HAL2     0.900000E-01   1.00800           0
      9233 MEMB     81       CHL1     H24B     HAL2     0.900000E-01   1.00800           0
      9234 MEMB     81       CHL1     C25      CTL1    -0.900000E-01   12.0110           0
      9235 MEMB     81       CHL1     H25      HAL1     0.900000E-01   1.00800           0
      9236 MEMB     81       CHL1     C26      CTL3    -0.270000       12.0110           0
      9237 MEMB     81       CHL1     H26A     HAL3     0.900000E-01   1.00800           0
      9238 MEMB     81       CHL1     H26B     HAL3     0.900000E-01   1.00800           0
      9239 MEMB     81       CHL1     H26C     HAL3     0.900000E-01   1.00800           0
      9240 MEMB     81       CHL1     C27      CTL3    -0.270000       12.0110           0
      9241 MEMB     81       CHL1     H27A     HAL3     0.900000E-01   1.00800           0
      9242 MEMB     81       CHL1     H27B     HAL3     0.900000E-01   1.00800           0
      9243 MEMB     81       CHL1     H27C     HAL3     0.900000E-01   1.00800           0
      9244 MEMB     82       OSM      N        NTL     -0.600000       14.0070           0
      9245 MEMB     82       OSM      C15      CTL5    -0.350000       12.0110           0
      9246 MEMB     82       OSM      H15A     HL       0.250000       1.00800           0
      9247 MEMB     82       OSM      H15B     HL       0.250000       1.00800           0
      9248 MEMB     82       OSM      H15C     HL       0.250000       1.00800           0
      9249 MEMB     82       OSM      C14      CTL5    -0.350000       12.0110           0
      9250 MEMB     82       OSM      H14A     HL       0.250000       1.00800           0
      9251 MEMB     82       OSM      H14B     HL       0.250000       1.00800           0
      9252 MEMB     82       OSM      H14C     HL       0.250000       1.00800           0
      9253 MEMB     82       OSM      C13      CTL5    -0.350000       12.0110           0
      9254 MEMB     82       OSM      H13A     HL       0.250000       1.00800           0
      9255 MEMB     82       OSM      H13B     HL       0.250000       1.00800           0
      9256 MEMB     82       OSM      H13C     HL       0.250000       1.00800           0
      9257 MEMB     82       OSM      C12      CTL2    -0.100000       12.0110           0
      9258 MEMB     82       OSM      H12A     HL       0.250000       1.00800           0
      9259 MEMB     82       OSM      H12B     HL       0.250000       1.00800           0
      9260 MEMB     82       OSM      C11      CTL2    -0.800000E-01   12.0110           0
      9261 MEMB     82       OSM      H11A     HAL2     0.900000E-01   1.00800           0
      9262 MEMB     82       OSM      H11B     HAL2     0.900000E-01   1.00800           0
      9263 MEMB     82       OSM      P        PL        1.50000       30.9740           0
      9264 MEMB     82       OSM      O13      O2L     -0.780000       15.9994           0
      9265 MEMB     82       OSM      O14      O2L     -0.780000       15.9994           0
      9266 MEMB     82       OSM      O11      OSLP    -0.570000       15.9994           0
      9267 MEMB     82       OSM      O12      OSLP    -0.570000       15.9994           0
      9268 MEMB     82       OSM      C1S      CTL2    -0.800000E-01   12.0110           0
      9269 MEMB     82       OSM      H1S      HAL2     0.900000E-01   1.00800           0
      9270 MEMB     82       OSM      H1T      HAL2     0.900000E-01   1.00800           0
      9271 MEMB     82       OSM      NF       NHL     -0.700000       14.0070           0
      9272 MEMB     82       OSM      HNF      H        0.350000       1.00800           0
      9273 MEMB     82       OSM      C2S      CTL1     0.300000       12.0110           0
      9274 MEMB     82       OSM      H2S      HAL1     0.500000E-01   1.00800           0
      9275 MEMB     82       OSM      C3S      CTO1     0.500000       12.0110           0
      9276 MEMB     82       OSM      H3S      HAL1    -0.110000       1.00800           0
      9277 MEMB     82       OSM      O3       OHL     -0.690000       15.9994           0
      9278 MEMB     82       OSM      HO3      HOL      0.300000       1.00800           0
      9279 MEMB     82       OSM      C4S      CEL3    -0.150000       12.0110           0
      9280 MEMB     82       OSM      H4S      HEL1     0.150000       1.00800           0
      9281 MEMB     82       OSM      C5S      CEL3    -0.150000       12.0110           0
      9282 MEMB     82       OSM      H5S      HEL1     0.150000       1.00800           0
      9283 MEMB     82       OSM      C6S      CTL2    -0.180000       12.0110           0
      9284 MEMB     82       OSM      H6S      HAL2     0.900000E-01   1.00800           0
      9285 MEMB     82       OSM      H6T      HAL2     0.900000E-01   1.00800           0
      9286 MEMB     82       OSM      C7S      CTL2    -0.180000       12.0110           0
      9287 MEMB     82       OSM      H7S      HAL2     0.900000E-01   1.00800           0
      9288 MEMB     82       OSM      H7T      HAL2     0.900000E-01   1.00800           0
      9289 MEMB     82       OSM      C8S      CTL2    -0.180000       12.0110           0
      9290 MEMB     82       OSM      H8S      HAL2     0.900000E-01   1.00800           0
      9291 MEMB     82       OSM      H8T      HAL2     0.900000E-01   1.00800           0
      9292 MEMB     82       OSM      C9S      CTL2    -0.180000       12.0110           0
      9293 MEMB     82       OSM      H9S      HAL2     0.900000E-01   1.00800           0
      9294 MEMB     82       OSM      H9T      HAL2     0.900000E-01   1.00800           0
      9295 MEMB     82       OSM      C10S     CTL2    -0.180000       12.0110           0
      9296 MEMB     82       OSM      H10S     HAL2     0.900000E-01   1.00800           0
      9297 MEMB     82       OSM      H10T     HAL2     0.900000E-01   1.00800           0
      9298 MEMB     82       OSM      C11S     CTL2    -0.180000       12.0110           0
      9299 MEMB     82       OSM      H11S     HAL2     0.900000E-01   1.00800           0
      9300 MEMB     82       OSM      H11T     HAL2     0.900000E-01   1.00800           0
      9301 MEMB     82       OSM      C12S     CTL2    -0.180000       12.0110           0
      9302 MEMB     82       OSM      H12S     HAL2     0.900000E-01   1.00800           0
      9303 MEMB     82       OSM      H12T     HAL2     0.900000E-01   1.00800           0
      9304 MEMB     82       OSM      C13S     CTL2    -0.180000       12.0110           0
      9305 MEMB     82       OSM      H13S     HAL2     0.900000E-01   1.00800           0
      9306 MEMB     82       OSM      H13T     HAL2     0.900000E-01   1.00800           0
      9307 MEMB     82       OSM      C14S     CTL2    -0.180000       12.0110           0
      9308 MEMB     82       OSM      H14S     HAL2     0.900000E-01   1.00800           0
      9309 MEMB     82       OSM      H14T     HAL2     0.900000E-01   1.00800           0
      9310 MEMB     82       OSM      C15S     CTL2    -0.180000       12.0110           0
      9311 MEMB     82       OSM      H15S     HAL2     0.900000E-01   1.00800           0
      9312 MEMB     82       OSM      H15T     HAL2     0.900000E-01   1.00800           0
      9313 MEMB     82       OSM      C16S     CTL2    -0.180000       12.0110           0
      9314 MEMB     82       OSM      H16S     HAL2     0.900000E-01   1.00800           0
      9315 MEMB     82       OSM      H16T     HAL2     0.900000E-01   1.00800           0
      9316 MEMB     82       OSM      C17S     CTL2    -0.180000       12.0110           0
      9317 MEMB     82       OSM      H17S     HAL2     0.900000E-01   1.00800           0
      9318 MEMB     82       OSM      H17T     HAL2     0.900000E-01   1.00800           0
      9319 MEMB     82       OSM      C18S     CTL3    -0.270000       12.0110           0
      9320 MEMB     82       OSM      H18S     HAL3     0.900000E-01   1.00800           0
      9321 MEMB     82       OSM      H18T     HAL3     0.900000E-01   1.00800           0
      9322 MEMB     82       OSM      H18U     HAL3     0.900000E-01   1.00800           0
      9323 MEMB     82       OSM      C1F      C        0.550000       12.0110           0
      9324 MEMB     82       OSM      OF       O       -0.600000       15.9994           0
      9325 MEMB     82       OSM      C2F      CTL2    -0.700000E-01   12.0110           0
      9326 MEMB     82       OSM      H2F      HAL2     0.600000E-01   1.00800           0
      9327 MEMB     82       OSM      H2G      HAL2     0.600000E-01   1.00800           0
      9328 MEMB     82       OSM      C3F      CTL2    -0.180000       12.0110           0
      9329 MEMB     82       OSM      H3F      HAL2     0.900000E-01   1.00800           0
      9330 MEMB     82       OSM      H3G      HAL2     0.900000E-01   1.00800           0
      9331 MEMB     82       OSM      C4F      CTL2    -0.180000       12.0110           0
      9332 MEMB     82       OSM      H4F      HAL2     0.900000E-01   1.00800           0
      9333 MEMB     82       OSM      H4G      HAL2     0.900000E-01   1.00800           0
      9334 MEMB     82       OSM      C5F      CTL2    -0.180000       12.0110           0
      9335 MEMB     82       OSM      H5F      HAL2     0.900000E-01   1.00800           0
      9336 MEMB     82       OSM      H5G      HAL2     0.900000E-01   1.00800           0
      9337 MEMB     82       OSM      C6F      CTL2    -0.180000       12.0110           0
      9338 MEMB     82       OSM      H6F      HAL2     0.900000E-01   1.00800           0
      9339 MEMB     82       OSM      H6G      HAL2     0.900000E-01   1.00800           0
      9340 MEMB     82       OSM      C7F      CTL2    -0.180000       12.0110           0
      9341 MEMB     82       OSM      H7F      HAL2     0.900000E-01   1.00800           0
      9342 MEMB     82       OSM      H7G      HAL2     0.900000E-01   1.00800           0
      9343 MEMB     82       OSM      C8F      CTL2    -0.180000       12.0110           0
      9344 MEMB     82       OSM      H8F      HAL2     0.900000E-01   1.00800           0
      9345 MEMB     82       OSM      H8G      HAL2     0.900000E-01   1.00800           0
      9346 MEMB     82       OSM      C9F      CEL1    -0.150000       12.0110           0
      9347 MEMB     82       OSM      H9F      HEL1     0.150000       1.00800           0
      9348 MEMB     82       OSM      C10F     CEL1    -0.150000       12.0110           0
      9349 MEMB     82       OSM      H10F     HEL1     0.150000       1.00800           0
      9350 MEMB     82       OSM      C11F     CTL2    -0.180000       12.0110           0
      9351 MEMB     82       OSM      H11F     HAL2     0.900000E-01   1.00800           0
      9352 MEMB     82       OSM      H11G     HAL2     0.900000E-01   1.00800           0
      9353 MEMB     82       OSM      C12F     CTL2    -0.180000       12.0110           0
      9354 MEMB     82       OSM      H12F     HAL2     0.900000E-01   1.00800           0
      9355 MEMB     82       OSM      H12G     HAL2     0.900000E-01   1.00800           0
      9356 MEMB     82       OSM      C13F     CTL2    -0.180000       12.0110           0
      9357 MEMB     82       OSM      H13F     HAL2     0.900000E-01   1.00800           0
      9358 MEMB     82       OSM      H13G     HAL2     0.900000E-01   1.00800           0
      9359 MEMB     82       OSM      C14F     CTL2    -0.180000       12.0110           0
      9360 MEMB     82       OSM      H14F     HAL2     0.900000E-01   1.00800           0
      9361 MEMB     82       OSM      H14G     HAL2     0.900000E-01   1.00800           0
      9362 MEMB     82       OSM      C15F     CTL2    -0.180000       12.0110           0
      9363 MEMB     82       OSM      H15F     HAL2     0.900000E-01   1.00800           0
      9364 MEMB     82       OSM      H15G     HAL2     0.900000E-01   1.00800           0
      9365 MEMB     82       OSM      C16F     CTL2    -0.180000       12.0110           0
      9366 MEMB     82       OSM      H16F     HAL2     0.900000E-01   1.00800           0
      9367 MEMB     82       OSM      H16G     HAL2     0.900000E-01   1.00800           0
      9368 MEMB     82       OSM      C17F     CTL2    -0.180000       12.0110           0
      9369 MEMB     82       OSM      H17F     HAL2     0.900000E-01   1.00800           0
      9370 MEMB     82       OSM      H17G     HAL2     0.900000E-01   1.00800           0
      9371 MEMB     82       OSM      C18F     CTL3    -0.270000       12.0110           0
      9372 MEMB     82       OSM      H18F     HAL3     0.900000E-01   1.00800           0
      9373 MEMB     82       OSM      H18G     HAL3     0.900000E-01   1.00800           0
      9374 MEMB     82       OSM      H18H     HAL3     0.900000E-01   1.00800           0
      9375 MEMB     83       SAPI     C12      CC3161   0.140000       12.0110           0
      9376 MEMB     83       SAPI     H2       HCA1     0.900000E-01   1.00800           0
      9377 MEMB     83       SAPI     O2       OC311   -0.650000       15.9994           0
      9378 MEMB     83       SAPI     HO2      HCP1     0.420000       1.00800           0
      9379 MEMB     83       SAPI     C13      CC3161   0.140000       12.0110           0
      9380 MEMB     83       SAPI     H3       HCA1     0.900000E-01   1.00800           0
      9381 MEMB     83       SAPI     O3       OC311   -0.650000       15.9994           0
      9382 MEMB     83       SAPI     HO3      HCP1     0.420000       1.00800           0
      9383 MEMB     83       SAPI     C14      CC3161   0.140000       12.0110           0
      9384 MEMB     83       SAPI     H4       HCA1     0.900000E-01   1.00800           0
      9385 MEMB     83       SAPI     O4       OC311   -0.650000       15.9994           0
      9386 MEMB     83       SAPI     HO4      HCP1     0.420000       1.00800           0
      9387 MEMB     83       SAPI     C15      CC3161   0.140000       12.0110           0
      9388 MEMB     83       SAPI     H5       HCA1     0.900000E-01   1.00800           0
      9389 MEMB     83       SAPI     O5       OC311   -0.650000       15.9994           0
      9390 MEMB     83       SAPI     HO5      HCP1     0.420000       1.00800           0
      9391 MEMB     83       SAPI     C16      CC3161   0.140000       12.0110           0
      9392 MEMB     83       SAPI     H6       HCA1     0.900000E-01   1.00800           0
      9393 MEMB     83       SAPI     O6       OC311   -0.650000       15.9994           0
      9394 MEMB     83       SAPI     HO6      HCP1     0.420000       1.00800           0
      9395 MEMB     83       SAPI     C11      CC3161  -0.800000E-01   12.0110           0
      9396 MEMB     83       SAPI     H1       HCA1     0.900000E-01   1.00800           0
      9397 MEMB     83       SAPI     P        PL        1.59000       30.9740           0
      9398 MEMB     83       SAPI     O13      O2L     -0.780000       15.9994           0
      9399 MEMB     83       SAPI     O14      O2L     -0.780000       15.9994           0
      9400 MEMB     83       SAPI     O12      OC30P   -0.570000       15.9994           0
      9401 MEMB     83       SAPI     O11      OSLP    -0.570000       15.9994           0
      9402 MEMB     83       SAPI     C1       CTL2    -0.800000E-01   12.0110           0
      9403 MEMB     83       SAPI     HA       HAL2     0.900000E-01   1.00800           0
      9404 MEMB     83       SAPI     HB       HAL2     0.900000E-01   1.00800           0
      9405 MEMB     83       SAPI     C2       CTL1     0.170000       12.0110           0
      9406 MEMB     83       SAPI     HS       HAL1     0.900000E-01   1.00800           0
      9407 MEMB     83       SAPI     O21      OSL     -0.490000       15.9994           0
      9408 MEMB     83       SAPI     C21      CL       0.900000       12.0110           0
      9409 MEMB     83       SAPI     O22      OBL     -0.630000       15.9994           0
      9410 MEMB     83       SAPI     C22      CTL2    -0.220000       12.0110           0
      9411 MEMB     83       SAPI     H2R      HAL2     0.900000E-01   1.00800           0
      9412 MEMB     83       SAPI     H2S      HAL2     0.900000E-01   1.00800           0
      9413 MEMB     83       SAPI     C3       CTL2     0.800000E-01   12.0110           0
      9414 MEMB     83       SAPI     HX       HAL2     0.900000E-01   1.00800           0
      9415 MEMB     83       SAPI     HY       HAL2     0.900000E-01   1.00800           0
      9416 MEMB     83       SAPI     O31      OSL     -0.490000       15.9994           0
      9417 MEMB     83       SAPI     C31      CL       0.900000       12.0110           0
      9418 MEMB     83       SAPI     O32      OBL     -0.630000       15.9994           0
      9419 MEMB     83       SAPI     C32      CTL2    -0.220000       12.0110           0
      9420 MEMB     83       SAPI     H2X      HAL2     0.900000E-01   1.00800           0
      9421 MEMB     83       SAPI     H2Y      HAL2     0.900000E-01   1.00800           0
      9422 MEMB     83       SAPI     C23      CTL2    -0.180000       12.0110           0
      9423 MEMB     83       SAPI     H3R      HAL2     0.900000E-01   1.00800           0
      9424 MEMB     83       SAPI     H3S      HAL2     0.900000E-01   1.00800           0
      9425 MEMB     83       SAPI     C24      CTL2    -0.180000       12.0110           0
      9426 MEMB     83       SAPI     H4R      HAL2     0.900000E-01   1.00800           0
      9427 MEMB     83       SAPI     H4S      HAL2     0.900000E-01   1.00800           0
      9428 MEMB     83       SAPI     C25      CEL1    -0.150000       12.0110           0
      9429 MEMB     83       SAPI     H5R      HEL1     0.150000       1.00800           0
      9430 MEMB     83       SAPI     C26      CEL1    -0.150000       12.0110           0
      9431 MEMB     83       SAPI     H6R      HEL1     0.150000       1.00800           0
      9432 MEMB     83       SAPI     C27      CTL2    -0.180000       12.0110           0
      9433 MEMB     83       SAPI     H7R      HAL2     0.900000E-01   1.00800           0
      9434 MEMB     83       SAPI     H7S      HAL2     0.900000E-01   1.00800           0
      9435 MEMB     83       SAPI     C28      CEL1    -0.150000       12.0110           0
      9436 MEMB     83       SAPI     H8R      HEL1     0.150000       1.00800           0
      9437 MEMB     83       SAPI     C29      CEL1    -0.150000       12.0110           0
      9438 MEMB     83       SAPI     H9R      HEL1     0.150000       1.00800           0
      9439 MEMB     83       SAPI     C210     CTL2    -0.180000       12.0110           0
      9440 MEMB     83       SAPI     H10R     HAL2     0.900000E-01   1.00800           0
      9441 MEMB     83       SAPI     H10S     HAL2     0.900000E-01   1.00800           0
      9442 MEMB     83       SAPI     C211     CEL1    -0.150000       12.0110           0
      9443 MEMB     83       SAPI     H11R     HEL1     0.150000       1.00800           0
      9444 MEMB     83       SAPI     C212     CEL1    -0.150000       12.0110           0
      9445 MEMB     83       SAPI     H12R     HEL1     0.150000       1.00800           0
      9446 MEMB     83       SAPI     C213     CTL2    -0.180000       12.0110           0
      9447 MEMB     83       SAPI     H13R     HAL2     0.900000E-01   1.00800           0
      9448 MEMB     83       SAPI     H13S     HAL2     0.900000E-01   1.00800           0
      9449 MEMB     83       SAPI     C214     CEL1    -0.150000       12.0110           0
      9450 MEMB     83       SAPI     H14R     HEL1     0.150000       1.00800           0
      9451 MEMB     83       SAPI     C215     CEL1    -0.150000       12.0110           0
      9452 MEMB     83       SAPI     H15R     HEL1     0.150000       1.00800           0
      9453 MEMB     83       SAPI     C216     CTL2    -0.180000       12.0110           0
      9454 MEMB     83       SAPI     H16R     HAL2     0.900000E-01   1.00800           0
      9455 MEMB     83       SAPI     H16S     HAL2     0.900000E-01   1.00800           0
      9456 MEMB     83       SAPI     C217     CTL2    -0.180000       12.0110           0
      9457 MEMB     83       SAPI     H17R     HAL2     0.900000E-01   1.00800           0
      9458 MEMB     83       SAPI     H17S     HAL2     0.900000E-01   1.00800           0
      9459 MEMB     83       SAPI     C218     CTL2    -0.180000       12.0110           0
      9460 MEMB     83       SAPI     H18R     HAL2     0.900000E-01   1.00800           0
      9461 MEMB     83       SAPI     H18S     HAL2     0.900000E-01   1.00800           0
      9462 MEMB     83       SAPI     C219     CTL2    -0.180000       12.0110           0
      9463 MEMB     83       SAPI     H19R     HAL2     0.900000E-01   1.00800           0
      9464 MEMB     83       SAPI     H19S     HAL2     0.900000E-01   1.00800           0
      9465 MEMB     83       SAPI     C220     CTL3    -0.270000       12.0110           0
      9466 MEMB     83       SAPI     H20R     HAL3     0.900000E-01   1.00800           0
      9467 MEMB     83       SAPI     H20S     HAL3     0.900000E-01   1.00800           0
      9468 MEMB     83       SAPI     H20T     HAL3     0.900000E-01   1.00800           0
      9469 MEMB     83       SAPI     C33      CTL2    -0.180000       12.0110           0
      9470 MEMB     83       SAPI     H3X      HAL2     0.900000E-01   1.00800           0
      9471 MEMB     83       SAPI     H3Y      HAL2     0.900000E-01   1.00800           0
      9472 MEMB     83       SAPI     C34      CTL2    -0.180000       12.0110           0
      9473 MEMB     83       SAPI     H4X      HAL2     0.900000E-01   1.00800           0
      9474 MEMB     83       SAPI     H4Y      HAL2     0.900000E-01   1.00800           0
      9475 MEMB     83       SAPI     C35      CTL2    -0.180000       12.0110           0
      9476 MEMB     83       SAPI     H5X      HAL2     0.900000E-01   1.00800           0
      9477 MEMB     83       SAPI     H5Y      HAL2     0.900000E-01   1.00800           0
      9478 MEMB     83       SAPI     C36      CTL2    -0.180000       12.0110           0
      9479 MEMB     83       SAPI     H6X      HAL2     0.900000E-01   1.00800           0
      9480 MEMB     83       SAPI     H6Y      HAL2     0.900000E-01   1.00800           0
      9481 MEMB     83       SAPI     C37      CTL2    -0.180000       12.0110           0
      9482 MEMB     83       SAPI     H7X      HAL2     0.900000E-01   1.00800           0
      9483 MEMB     83       SAPI     H7Y      HAL2     0.900000E-01   1.00800           0
      9484 MEMB     83       SAPI     C38      CTL2    -0.180000       12.0110           0
      9485 MEMB     83       SAPI     H8X      HAL2     0.900000E-01   1.00800           0
      9486 MEMB     83       SAPI     H8Y      HAL2     0.900000E-01   1.00800           0
      9487 MEMB     83       SAPI     C39      CTL2    -0.180000       12.0110           0
      9488 MEMB     83       SAPI     H9X      HAL2     0.900000E-01   1.00800           0
      9489 MEMB     83       SAPI     H9Y      HAL2     0.900000E-01   1.00800           0
      9490 MEMB     83       SAPI     C310     CTL2    -0.180000       12.0110           0
      9491 MEMB     83       SAPI     H10X     HAL2     0.900000E-01   1.00800           0
      9492 MEMB     83       SAPI     H10Y     HAL2     0.900000E-01   1.00800           0
      9493 MEMB     83       SAPI     C311     CTL2    -0.180000       12.0110           0
      9494 MEMB     83       SAPI     H11X     HAL2     0.900000E-01   1.00800           0
      9495 MEMB     83       SAPI     H11Y     HAL2     0.900000E-01   1.00800           0
      9496 MEMB     83       SAPI     C312     CTL2    -0.180000       12.0110           0
      9497 MEMB     83       SAPI     H12X     HAL2     0.900000E-01   1.00800           0
      9498 MEMB     83       SAPI     H12Y     HAL2     0.900000E-01   1.00800           0
      9499 MEMB     83       SAPI     C313     CTL2    -0.180000       12.0110           0
      9500 MEMB     83       SAPI     H13X     HAL2     0.900000E-01   1.00800           0
      9501 MEMB     83       SAPI     H13Y     HAL2     0.900000E-01   1.00800           0
      9502 MEMB     83       SAPI     C314     CTL2    -0.180000       12.0110           0
      9503 MEMB     83       SAPI     H14X     HAL2     0.900000E-01   1.00800           0
      9504 MEMB     83       SAPI     H14Y     HAL2     0.900000E-01   1.00800           0
      9505 MEMB     83       SAPI     C315     CTL2    -0.180000       12.0110           0
      9506 MEMB     83       SAPI     H15X     HAL2     0.900000E-01   1.00800           0
      9507 MEMB     83       SAPI     H15Y     HAL2     0.900000E-01   1.00800           0
      9508 MEMB     83       SAPI     C316     CTL2    -0.180000       12.0110           0
      9509 MEMB     83       SAPI     H16X     HAL2     0.900000E-01   1.00800           0
      9510 MEMB     83       SAPI     H16Y     HAL2     0.900000E-01   1.00800           0
      9511 MEMB     83       SAPI     C317     CTL2    -0.180000       12.0110           0
      9512 MEMB     83       SAPI     H17X     HAL2     0.900000E-01   1.00800           0
      9513 MEMB     83       SAPI     H17Y     HAL2     0.900000E-01   1.00800           0
      9514 MEMB     83       SAPI     C318     CTL3    -0.270000       12.0110           0
      9515 MEMB     83       SAPI     H18X     HAL3     0.900000E-01   1.00800           0
      9516 MEMB     83       SAPI     H18Y     HAL3     0.900000E-01   1.00800           0
      9517 MEMB     83       SAPI     H18Z     HAL3     0.900000E-01   1.00800           0
      9518 MEMB     84       SAPE     N        NH3L    -0.300000       14.0070           0
      9519 MEMB     84       SAPE     HN1      HCL      0.330000       1.00800           0
      9520 MEMB     84       SAPE     HN2      HCL      0.330000       1.00800           0
      9521 MEMB     84       SAPE     HN3      HCL      0.330000       1.00800           0
      9522 MEMB     84       SAPE     C12      CTL2     0.130000       12.0110           0
      9523 MEMB     84       SAPE     H12A     HAL2     0.900000E-01   1.00800           0
      9524 MEMB     84       SAPE     H12B     HAL2     0.900000E-01   1.00800           0
      9525 MEMB     84       SAPE     C11      CTL2    -0.800000E-01   12.0110           0
      9526 MEMB     84       SAPE     H11A     HAL2     0.900000E-01   1.00800           0
      9527 MEMB     84       SAPE     H11B     HAL2     0.900000E-01   1.00800           0
      9528 MEMB     84       SAPE     P        PL        1.50000       30.9740           0
      9529 MEMB     84       SAPE     O13      O2L     -0.780000       15.9994           0
      9530 MEMB     84       SAPE     O14      O2L     -0.780000       15.9994           0
      9531 MEMB     84       SAPE     O12      OSLP    -0.570000       15.9994           0
      9532 MEMB     84       SAPE     O11      OSLP    -0.570000       15.9994           0
      9533 MEMB     84       SAPE     C1       CTL2    -0.800000E-01   12.0110           0
      9534 MEMB     84       SAPE     HA       HAL2     0.900000E-01   1.00800           0
      9535 MEMB     84       SAPE     HB       HAL2     0.900000E-01   1.00800           0
      9536 MEMB     84       SAPE     C2       CTL1     0.170000       12.0110           0
      9537 MEMB     84       SAPE     HS       HAL1     0.900000E-01   1.00800           0
      9538 MEMB     84       SAPE     O21      OSL     -0.490000       15.9994           0
      9539 MEMB     84       SAPE     C21      CL       0.900000       12.0110           0
      9540 MEMB     84       SAPE     O22      OBL     -0.630000       15.9994           0
      9541 MEMB     84       SAPE     C22      CTL2    -0.220000       12.0110           0
      9542 MEMB     84       SAPE     H2R      HAL2     0.900000E-01   1.00800           0
      9543 MEMB     84       SAPE     H2S      HAL2     0.900000E-01   1.00800           0
      9544 MEMB     84       SAPE     C3       CTL2     0.800000E-01   12.0110           0
      9545 MEMB     84       SAPE     HX       HAL2     0.900000E-01   1.00800           0
      9546 MEMB     84       SAPE     HY       HAL2     0.900000E-01   1.00800           0
      9547 MEMB     84       SAPE     O31      OSL     -0.490000       15.9994           0
      9548 MEMB     84       SAPE     C31      CL       0.900000       12.0110           0
      9549 MEMB     84       SAPE     O32      OBL     -0.630000       15.9994           0
      9550 MEMB     84       SAPE     C32      CTL2    -0.220000       12.0110           0
      9551 MEMB     84       SAPE     H2X      HAL2     0.900000E-01   1.00800           0
      9552 MEMB     84       SAPE     H2Y      HAL2     0.900000E-01   1.00800           0
      9553 MEMB     84       SAPE     C23      CTL2    -0.180000       12.0110           0
      9554 MEMB     84       SAPE     H3R      HAL2     0.900000E-01   1.00800           0
      9555 MEMB     84       SAPE     H3S      HAL2     0.900000E-01   1.00800           0
      9556 MEMB     84       SAPE     C24      CTL2    -0.180000       12.0110           0
      9557 MEMB     84       SAPE     H4R      HAL2     0.900000E-01   1.00800           0
      9558 MEMB     84       SAPE     H4S      HAL2     0.900000E-01   1.00800           0
      9559 MEMB     84       SAPE     C25      CEL1    -0.150000       12.0110           0
      9560 MEMB     84       SAPE     H5R      HEL1     0.150000       1.00800           0
      9561 MEMB     84       SAPE     C26      CEL1    -0.150000       12.0110           0
      9562 MEMB     84       SAPE     H6R      HEL1     0.150000       1.00800           0
      9563 MEMB     84       SAPE     C27      CTL2    -0.180000       12.0110           0
      9564 MEMB     84       SAPE     H7R      HAL2     0.900000E-01   1.00800           0
      9565 MEMB     84       SAPE     H7S      HAL2     0.900000E-01   1.00800           0
      9566 MEMB     84       SAPE     C28      CEL1    -0.150000       12.0110           0
      9567 MEMB     84       SAPE     H8R      HEL1     0.150000       1.00800           0
      9568 MEMB     84       SAPE     C29      CEL1    -0.150000       12.0110           0
      9569 MEMB     84       SAPE     H9R      HEL1     0.150000       1.00800           0
      9570 MEMB     84       SAPE     C210     CTL2    -0.180000       12.0110           0
      9571 MEMB     84       SAPE     H10R     HAL2     0.900000E-01   1.00800           0
      9572 MEMB     84       SAPE     H10S     HAL2     0.900000E-01   1.00800           0
      9573 MEMB     84       SAPE     C211     CEL1    -0.150000       12.0110           0
      9574 MEMB     84       SAPE     H11R     HEL1     0.150000       1.00800           0
      9575 MEMB     84       SAPE     C212     CEL1    -0.150000       12.0110           0
      9576 MEMB     84       SAPE     H12R     HEL1     0.150000       1.00800           0
      9577 MEMB     84       SAPE     C213     CTL2    -0.180000       12.0110           0
      9578 MEMB     84       SAPE     H13R     HAL2     0.900000E-01   1.00800           0
      9579 MEMB     84       SAPE     H13S     HAL2     0.900000E-01   1.00800           0
      9580 MEMB     84       SAPE     C214     CEL1    -0.150000       12.0110           0
      9581 MEMB     84       SAPE     H14R     HEL1     0.150000       1.00800           0
      9582 MEMB     84       SAPE     C215     CEL1    -0.150000       12.0110           0
      9583 MEMB     84       SAPE     H15R     HEL1     0.150000       1.00800           0
      9584 MEMB     84       SAPE     C216     CTL2    -0.180000       12.0110           0
      9585 MEMB     84       SAPE     H16R     HAL2     0.900000E-01   1.00800           0
      9586 MEMB     84       SAPE     H16S     HAL2     0.900000E-01   1.00800           0
      9587 MEMB     84       SAPE     C217     CTL2    -0.180000       12.0110           0
      9588 MEMB     84       SAPE     H17R     HAL2     0.900000E-01   1.00800           0
      9589 MEMB     84       SAPE     H17S     HAL2     0.900000E-01   1.00800           0
      9590 MEMB     84       SAPE     C218     CTL2    -0.180000       12.0110           0
      9591 MEMB     84       SAPE     H18R     HAL2     0.900000E-01   1.00800           0
      9592 MEMB     84       SAPE     H18S     HAL2     0.900000E-01   1.00800           0
      9593 MEMB     84       SAPE     C219     CTL2    -0.180000       12.0110           0
      9594 MEMB     84       SAPE     H19R     HAL2     0.900000E-01   1.00800           0
      9595 MEMB     84       SAPE     H19S     HAL2     0.900000E-01   1.00800           0
      9596 MEMB     84       SAPE     C220     CTL3    -0.270000       12.0110           0
      9597 MEMB     84       SAPE     H20R     HAL3     0.900000E-01   1.00800           0
      9598 MEMB     84       SAPE     H20S     HAL3     0.900000E-01   1.00800           0
      9599 MEMB     84       SAPE     H20T     HAL3     0.900000E-01   1.00800           0
      9600 MEMB     84       SAPE     C33      CTL2    -0.180000       12.0110           0
      9601 MEMB     84       SAPE     H3X      HAL2     0.900000E-01   1.00800           0
      9602 MEMB     84       SAPE     H3Y      HAL2     0.900000E-01   1.00800           0
      9603 MEMB     84       SAPE     C34      CTL2    -0.180000       12.0110           0
      9604 MEMB     84       SAPE     H4X      HAL2     0.900000E-01   1.00800           0
      9605 MEMB     84       SAPE     H4Y      HAL2     0.900000E-01   1.00800           0
      9606 MEMB     84       SAPE     C35      CTL2    -0.180000       12.0110           0
      9607 MEMB     84       SAPE     H5X      HAL2     0.900000E-01   1.00800           0
      9608 MEMB     84       SAPE     H5Y      HAL2     0.900000E-01   1.00800           0
      9609 MEMB     84       SAPE     C36      CTL2    -0.180000       12.0110           0
      9610 MEMB     84       SAPE     H6X      HAL2     0.900000E-01   1.00800           0
      9611 MEMB     84       SAPE     H6Y      HAL2     0.900000E-01   1.00800           0
      9612 MEMB     84       SAPE     C37      CTL2    -0.180000       12.0110           0
      9613 MEMB     84       SAPE     H7X      HAL2     0.900000E-01   1.00800           0
      9614 MEMB     84       SAPE     H7Y      HAL2     0.900000E-01   1.00800           0
      9615 MEMB     84       SAPE     C38      CTL2    -0.180000       12.0110           0
      9616 MEMB     84       SAPE     H8X      HAL2     0.900000E-01   1.00800           0
      9617 MEMB     84       SAPE     H8Y      HAL2     0.900000E-01   1.00800           0
      9618 MEMB     84       SAPE     C39      CTL2    -0.180000       12.0110           0
      9619 MEMB     84       SAPE     H9X      HAL2     0.900000E-01   1.00800           0
      9620 MEMB     84       SAPE     H9Y      HAL2     0.900000E-01   1.00800           0
      9621 MEMB     84       SAPE     C310     CTL2    -0.180000       12.0110           0
      9622 MEMB     84       SAPE     H10X     HAL2     0.900000E-01   1.00800           0
      9623 MEMB     84       SAPE     H10Y     HAL2     0.900000E-01   1.00800           0
      9624 MEMB     84       SAPE     C311     CTL2    -0.180000       12.0110           0
      9625 MEMB     84       SAPE     H11X     HAL2     0.900000E-01   1.00800           0
      9626 MEMB     84       SAPE     H11Y     HAL2     0.900000E-01   1.00800           0
      9627 MEMB     84       SAPE     C312     CTL2    -0.180000       12.0110           0
      9628 MEMB     84       SAPE     H12X     HAL2     0.900000E-01   1.00800           0
      9629 MEMB     84       SAPE     H12Y     HAL2     0.900000E-01   1.00800           0
      9630 MEMB     84       SAPE     C313     CTL2    -0.180000       12.0110           0
      9631 MEMB     84       SAPE     H13X     HAL2     0.900000E-01   1.00800           0
      9632 MEMB     84       SAPE     H13Y     HAL2     0.900000E-01   1.00800           0
      9633 MEMB     84       SAPE     C314     CTL2    -0.180000       12.0110           0
      9634 MEMB     84       SAPE     H14X     HAL2     0.900000E-01   1.00800           0
      9635 MEMB     84       SAPE     H14Y     HAL2     0.900000E-01   1.00800           0
      9636 MEMB     84       SAPE     C315     CTL2    -0.180000       12.0110           0
      9637 MEMB     84       SAPE     H15X     HAL2     0.900000E-01   1.00800           0
      9638 MEMB     84       SAPE     H15Y     HAL2     0.900000E-01   1.00800           0
      9639 MEMB     84       SAPE     C316     CTL2    -0.180000       12.0110           0
      9640 MEMB     84       SAPE     H16X     HAL2     0.900000E-01   1.00800           0
      9641 MEMB     84       SAPE     H16Y     HAL2     0.900000E-01   1.00800           0
      9642 MEMB     84       SAPE     C317     CTL2    -0.180000       12.0110           0
      9643 MEMB     84       SAPE     H17X     HAL2     0.900000E-01   1.00800           0
      9644 MEMB     84       SAPE     H17Y     HAL2     0.900000E-01   1.00800           0
      9645 MEMB     84       SAPE     C318     CTL3    -0.270000       12.0110           0
      9646 MEMB     84       SAPE     H18X     HAL3     0.900000E-01   1.00800           0
      9647 MEMB     84       SAPE     H18Y     HAL3     0.900000E-01   1.00800           0
      9648 MEMB     84       SAPE     H18Z     HAL3     0.900000E-01   1.00800           0
      9649 MEMB     85       SAPE     N        NH3L    -0.300000       14.0070           0
      9650 MEMB     85       SAPE     HN1      HCL      0.330000       1.00800           0
      9651 MEMB     85       SAPE     HN2      HCL      0.330000       1.00800           0
      9652 MEMB     85       SAPE     HN3      HCL      0.330000       1.00800           0
      9653 MEMB     85       SAPE     C12      CTL2     0.130000       12.0110           0
      9654 MEMB     85       SAPE     H12A     HAL2     0.900000E-01   1.00800           0
      9655 MEMB     85       SAPE     H12B     HAL2     0.900000E-01   1.00800           0
      9656 MEMB     85       SAPE     C11      CTL2    -0.800000E-01   12.0110           0
      9657 MEMB     85       SAPE     H11A     HAL2     0.900000E-01   1.00800           0
      9658 MEMB     85       SAPE     H11B     HAL2     0.900000E-01   1.00800           0
      9659 MEMB     85       SAPE     P        PL        1.50000       30.9740           0
      9660 MEMB     85       SAPE     O13      O2L     -0.780000       15.9994           0
      9661 MEMB     85       SAPE     O14      O2L     -0.780000       15.9994           0
      9662 MEMB     85       SAPE     O12      OSLP    -0.570000       15.9994           0
      9663 MEMB     85       SAPE     O11      OSLP    -0.570000       15.9994           0
      9664 MEMB     85       SAPE     C1       CTL2    -0.800000E-01   12.0110           0
      9665 MEMB     85       SAPE     HA       HAL2     0.900000E-01   1.00800           0
      9666 MEMB     85       SAPE     HB       HAL2     0.900000E-01   1.00800           0
      9667 MEMB     85       SAPE     C2       CTL1     0.170000       12.0110           0
      9668 MEMB     85       SAPE     HS       HAL1     0.900000E-01   1.00800           0
      9669 MEMB     85       SAPE     O21      OSL     -0.490000       15.9994           0
      9670 MEMB     85       SAPE     C21      CL       0.900000       12.0110           0
      9671 MEMB     85       SAPE     O22      OBL     -0.630000       15.9994           0
      9672 MEMB     85       SAPE     C22      CTL2    -0.220000       12.0110           0
      9673 MEMB     85       SAPE     H2R      HAL2     0.900000E-01   1.00800           0
      9674 MEMB     85       SAPE     H2S      HAL2     0.900000E-01   1.00800           0
      9675 MEMB     85       SAPE     C3       CTL2     0.800000E-01   12.0110           0
      9676 MEMB     85       SAPE     HX       HAL2     0.900000E-01   1.00800           0
      9677 MEMB     85       SAPE     HY       HAL2     0.900000E-01   1.00800           0
      9678 MEMB     85       SAPE     O31      OSL     -0.490000       15.9994           0
      9679 MEMB     85       SAPE     C31      CL       0.900000       12.0110           0
      9680 MEMB     85       SAPE     O32      OBL     -0.630000       15.9994           0
      9681 MEMB     85       SAPE     C32      CTL2    -0.220000       12.0110           0
      9682 MEMB     85       SAPE     H2X      HAL2     0.900000E-01   1.00800           0
      9683 MEMB     85       SAPE     H2Y      HAL2     0.900000E-01   1.00800           0
      9684 MEMB     85       SAPE     C23      CTL2    -0.180000       12.0110           0
      9685 MEMB     85       SAPE     H3R      HAL2     0.900000E-01   1.00800           0
      9686 MEMB     85       SAPE     H3S      HAL2     0.900000E-01   1.00800           0
      9687 MEMB     85       SAPE     C24      CTL2    -0.180000       12.0110           0
      9688 MEMB     85       SAPE     H4R      HAL2     0.900000E-01   1.00800           0
      9689 MEMB     85       SAPE     H4S      HAL2     0.900000E-01   1.00800           0
      9690 MEMB     85       SAPE     C25      CEL1    -0.150000       12.0110           0
      9691 MEMB     85       SAPE     H5R      HEL1     0.150000       1.00800           0
      9692 MEMB     85       SAPE     C26      CEL1    -0.150000       12.0110           0
      9693 MEMB     85       SAPE     H6R      HEL1     0.150000       1.00800           0
      9694 MEMB     85       SAPE     C27      CTL2    -0.180000       12.0110           0
      9695 MEMB     85       SAPE     H7R      HAL2     0.900000E-01   1.00800           0
      9696 MEMB     85       SAPE     H7S      HAL2     0.900000E-01   1.00800           0
      9697 MEMB     85       SAPE     C28      CEL1    -0.150000       12.0110           0
      9698 MEMB     85       SAPE     H8R      HEL1     0.150000       1.00800           0
      9699 MEMB     85       SAPE     C29      CEL1    -0.150000       12.0110           0
      9700 MEMB     85       SAPE     H9R      HEL1     0.150000       1.00800           0
      9701 MEMB     85       SAPE     C210     CTL2    -0.180000       12.0110           0
      9702 MEMB     85       SAPE     H10R     HAL2     0.900000E-01   1.00800           0
      9703 MEMB     85       SAPE     H10S     HAL2     0.900000E-01   1.00800           0
      9704 MEMB     85       SAPE     C211     CEL1    -0.150000       12.0110           0
      9705 MEMB     85       SAPE     H11R     HEL1     0.150000       1.00800           0
      9706 MEMB     85       SAPE     C212     CEL1    -0.150000       12.0110           0
      9707 MEMB     85       SAPE     H12R     HEL1     0.150000       1.00800           0
      9708 MEMB     85       SAPE     C213     CTL2    -0.180000       12.0110           0
      9709 MEMB     85       SAPE     H13R     HAL2     0.900000E-01   1.00800           0
      9710 MEMB     85       SAPE     H13S     HAL2     0.900000E-01   1.00800           0
      9711 MEMB     85       SAPE     C214     CEL1    -0.150000       12.0110           0
      9712 MEMB     85       SAPE     H14R     HEL1     0.150000       1.00800           0
      9713 MEMB     85       SAPE     C215     CEL1    -0.150000       12.0110           0
      9714 MEMB     85       SAPE     H15R     HEL1     0.150000       1.00800           0
      9715 MEMB     85       SAPE     C216     CTL2    -0.180000       12.0110           0
      9716 MEMB     85       SAPE     H16R     HAL2     0.900000E-01   1.00800           0
      9717 MEMB     85       SAPE     H16S     HAL2     0.900000E-01   1.00800           0
      9718 MEMB     85       SAPE     C217     CTL2    -0.180000       12.0110           0
      9719 MEMB     85       SAPE     H17R     HAL2     0.900000E-01   1.00800           0
      9720 MEMB     85       SAPE     H17S     HAL2     0.900000E-01   1.00800           0
      9721 MEMB     85       SAPE     C218     CTL2    -0.180000       12.0110           0
      9722 MEMB     85       SAPE     H18R     HAL2     0.900000E-01   1.00800           0
      9723 MEMB     85       SAPE     H18S     HAL2     0.900000E-01   1.00800           0
      9724 MEMB     85       SAPE     C219     CTL2    -0.180000       12.0110           0
      9725 MEMB     85       SAPE     H19R     HAL2     0.900000E-01   1.00800           0
      9726 MEMB     85       SAPE     H19S     HAL2     0.900000E-01   1.00800           0
      9727 MEMB     85       SAPE     C220     CTL3    -0.270000       12.0110           0
      9728 MEMB     85       SAPE     H20R     HAL3     0.900000E-01   1.00800           0
      9729 MEMB     85       SAPE     H20S     HAL3     0.900000E-01   1.00800           0
      9730 MEMB     85       SAPE     H20T     HAL3     0.900000E-01   1.00800           0
      9731 MEMB     85       SAPE     C33      CTL2    -0.180000       12.0110           0
      9732 MEMB     85       SAPE     H3X      HAL2     0.900000E-01   1.00800           0
      9733 MEMB     85       SAPE     H3Y      HAL2     0.900000E-01   1.00800           0
      9734 MEMB     85       SAPE     C34      CTL2    -0.180000       12.0110           0
      9735 MEMB     85       SAPE     H4X      HAL2     0.900000E-01   1.00800           0
      9736 MEMB     85       SAPE     H4Y      HAL2     0.900000E-01   1.00800           0
      9737 MEMB     85       SAPE     C35      CTL2    -0.180000       12.0110           0
      9738 MEMB     85       SAPE     H5X      HAL2     0.900000E-01   1.00800           0
      9739 MEMB     85       SAPE     H5Y      HAL2     0.900000E-01   1.00800           0
      9740 MEMB     85       SAPE     C36      CTL2    -0.180000       12.0110           0
      9741 MEMB     85       SAPE     H6X      HAL2     0.900000E-01   1.00800           0
      9742 MEMB     85       SAPE     H6Y      HAL2     0.900000E-01   1.00800           0
      9743 MEMB     85       SAPE     C37      CTL2    -0.180000       12.0110           0
      9744 MEMB     85       SAPE     H7X      HAL2     0.900000E-01   1.00800           0
      9745 MEMB     85       SAPE     H7Y      HAL2     0.900000E-01   1.00800           0
      9746 MEMB     85       SAPE     C38      CTL2    -0.180000       12.0110           0
      9747 MEMB     85       SAPE     H8X      HAL2     0.900000E-01   1.00800           0
      9748 MEMB     85       SAPE     H8Y      HAL2     0.900000E-01   1.00800           0
      9749 MEMB     85       SAPE     C39      CTL2    -0.180000       12.0110           0
      9750 MEMB     85       SAPE     H9X      HAL2     0.900000E-01   1.00800           0
      9751 MEMB     85       SAPE     H9Y      HAL2     0.900000E-01   1.00800           0
      9752 MEMB     85       SAPE     C310     CTL2    -0.180000       12.0110           0
      9753 MEMB     85       SAPE     H10X     HAL2     0.900000E-01   1.00800           0
      9754 MEMB     85       SAPE     H10Y     HAL2     0.900000E-01   1.00800           0
      9755 MEMB     85       SAPE     C311     CTL2    -0.180000       12.0110           0
      9756 MEMB     85       SAPE     H11X     HAL2     0.900000E-01   1.00800           0
      9757 MEMB     85       SAPE     H11Y     HAL2     0.900000E-01   1.00800           0
      9758 MEMB     85       SAPE     C312     CTL2    -0.180000       12.0110           0
      9759 MEMB     85       SAPE     H12X     HAL2     0.900000E-01   1.00800           0
      9760 MEMB     85       SAPE     H12Y     HAL2     0.900000E-01   1.00800           0
      9761 MEMB     85       SAPE     C313     CTL2    -0.180000       12.0110           0
      9762 MEMB     85       SAPE     H13X     HAL2     0.900000E-01   1.00800           0
      9763 MEMB     85       SAPE     H13Y     HAL2     0.900000E-01   1.00800           0
      9764 MEMB     85       SAPE     C314     CTL2    -0.180000       12.0110           0
      9765 MEMB     85       SAPE     H14X     HAL2     0.900000E-01   1.00800           0
      9766 MEMB     85       SAPE     H14Y     HAL2     0.900000E-01   1.00800           0
      9767 MEMB     85       SAPE     C315     CTL2    -0.180000       12.0110           0
      9768 MEMB     85       SAPE     H15X     HAL2     0.900000E-01   1.00800           0
      9769 MEMB     85       SAPE     H15Y     HAL2     0.900000E-01   1.00800           0
      9770 MEMB     85       SAPE     C316     CTL2    -0.180000       12.0110           0
      9771 MEMB     85       SAPE     H16X     HAL2     0.900000E-01   1.00800           0
      9772 MEMB     85       SAPE     H16Y     HAL2     0.900000E-01   1.00800           0
      9773 MEMB     85       SAPE     C317     CTL2    -0.180000       12.0110           0
      9774 MEMB     85       SAPE     H17X     HAL2     0.900000E-01   1.00800           0
      9775 MEMB     85       SAPE     H17Y     HAL2     0.900000E-01   1.00800           0
      9776 MEMB     85       SAPE     C318     CTL3    -0.270000       12.0110           0
      9777 MEMB     85       SAPE     H18X     HAL3     0.900000E-01   1.00800           0
      9778 MEMB     85       SAPE     H18Y     HAL3     0.900000E-01   1.00800           0
      9779 MEMB     85       SAPE     H18Z     HAL3     0.900000E-01   1.00800           0
      9780 MEMB     86       CHL1     C3       CRL1     0.140000       12.0110           0
      9781 MEMB     86       CHL1     H3       HGA1     0.900000E-01   1.00800           0
      9782 MEMB     86       CHL1     O3       OHL     -0.660000       15.9994           0
      9783 MEMB     86       CHL1     H3'      HOL      0.430000       1.00800           0
      9784 MEMB     86       CHL1     C4       CRL2    -0.180000       12.0110           0
      9785 MEMB     86       CHL1     H4A      HGA2     0.900000E-01   1.00800           0
      9786 MEMB     86       CHL1     H4B      HGA2     0.900000E-01   1.00800           0
      9787 MEMB     86       CHL1     C5       CEL1      0.00000       12.0110           0
      9788 MEMB     86       CHL1     C6       CEL1    -0.150000       12.0110           0
      9789 MEMB     86       CHL1     H6       HEL1     0.150000       1.00800           0
      9790 MEMB     86       CHL1     C7       CRL2    -0.180000       12.0110           0
      9791 MEMB     86       CHL1     H7A      HGA2     0.900000E-01   1.00800           0
      9792 MEMB     86       CHL1     H7B      HGA2     0.900000E-01   1.00800           0
      9793 MEMB     86       CHL1     C8       CRL1    -0.900000E-01   12.0110           0
      9794 MEMB     86       CHL1     H8       HGA1     0.900000E-01   1.00800           0
      9795 MEMB     86       CHL1     C14      CRL1    -0.900000E-01   12.0110           0
      9796 MEMB     86       CHL1     H14      HGA1     0.900000E-01   1.00800           0
      9797 MEMB     86       CHL1     C15      CRL2    -0.180000       12.0110           0
      9798 MEMB     86       CHL1     H15A     HGA2     0.900000E-01   1.00800           0
      9799 MEMB     86       CHL1     H15B     HGA2     0.900000E-01   1.00800           0
      9800 MEMB     86       CHL1     C16      CRL2    -0.180000       12.0110           0
      9801 MEMB     86       CHL1     H16A     HGA2     0.900000E-01   1.00800           0
      9802 MEMB     86       CHL1     H16B     HGA2     0.900000E-01   1.00800           0
      9803 MEMB     86       CHL1     C17      CRL1    -0.900000E-01   12.0110           0
      9804 MEMB     86       CHL1     H17      HGA1     0.900000E-01   1.00800           0
      9805 MEMB     86       CHL1     C13      CRL1      0.00000       12.0110           0
      9806 MEMB     86       CHL1     C18      CTL3    -0.270000       12.0110           0
      9807 MEMB     86       CHL1     H18A     HAL3     0.900000E-01   1.00800           0
      9808 MEMB     86       CHL1     H18B     HAL3     0.900000E-01   1.00800           0
      9809 MEMB     86       CHL1     H18C     HAL3     0.900000E-01   1.00800           0
      9810 MEMB     86       CHL1     C12      CRL2    -0.180000       12.0110           0
      9811 MEMB     86       CHL1     H12A     HGA2     0.900000E-01   1.00800           0
      9812 MEMB     86       CHL1     H12B     HGA2     0.900000E-01   1.00800           0
      9813 MEMB     86       CHL1     C11      CRL2    -0.180000       12.0110           0
      9814 MEMB     86       CHL1     H11A     HGA2     0.900000E-01   1.00800           0
      9815 MEMB     86       CHL1     H11B     HGA2     0.900000E-01   1.00800           0
      9816 MEMB     86       CHL1     C9       CRL1    -0.900000E-01   12.0110           0
      9817 MEMB     86       CHL1     H9       HGA1     0.900000E-01   1.00800           0
      9818 MEMB     86       CHL1     C10      CRL1      0.00000       12.0110           0
      9819 MEMB     86       CHL1     C19      CTL3    -0.270000       12.0110           0
      9820 MEMB     86       CHL1     H19A     HAL3     0.900000E-01   1.00800           0
      9821 MEMB     86       CHL1     H19B     HAL3     0.900000E-01   1.00800           0
      9822 MEMB     86       CHL1     H19C     HAL3     0.900000E-01   1.00800           0
      9823 MEMB     86       CHL1     C1       CRL2    -0.180000       12.0110           0
      9824 MEMB     86       CHL1     H1A      HGA2     0.900000E-01   1.00800           0
      9825 MEMB     86       CHL1     H1B      HGA2     0.900000E-01   1.00800           0
      9826 MEMB     86       CHL1     C2       CRL2    -0.180000       12.0110           0
      9827 MEMB     86       CHL1     H2A      HGA2     0.900000E-01   1.00800           0
      9828 MEMB     86       CHL1     H2B      HGA2     0.900000E-01   1.00800           0
      9829 MEMB     86       CHL1     C20      CTL1    -0.900000E-01   12.0110           0
      9830 MEMB     86       CHL1     H20      HAL1     0.900000E-01   1.00800           0
      9831 MEMB     86       CHL1     C21      CTL3    -0.270000       12.0110           0
      9832 MEMB     86       CHL1     H21A     HAL3     0.900000E-01   1.00800           0
      9833 MEMB     86       CHL1     H21B     HAL3     0.900000E-01   1.00800           0
      9834 MEMB     86       CHL1     H21C     HAL3     0.900000E-01   1.00800           0
      9835 MEMB     86       CHL1     C22      CTL2    -0.180000       12.0110           0
      9836 MEMB     86       CHL1     H22A     HAL2     0.900000E-01   1.00800           0
      9837 MEMB     86       CHL1     H22B     HAL2     0.900000E-01   1.00800           0
      9838 MEMB     86       CHL1     C23      CTL2    -0.180000       12.0110           0
      9839 MEMB     86       CHL1     H23A     HAL2     0.900000E-01   1.00800           0
      9840 MEMB     86       CHL1     H23B     HAL2     0.900000E-01   1.00800           0
      9841 MEMB     86       CHL1     C24      CTL2    -0.180000       12.0110           0
      9842 MEMB     86       CHL1     H24A     HAL2     0.900000E-01   1.00800           0
      9843 MEMB     86       CHL1     H24B     HAL2     0.900000E-01   1.00800           0
      9844 MEMB     86       CHL1     C25      CTL1    -0.900000E-01   12.0110           0
      9845 MEMB     86       CHL1     H25      HAL1     0.900000E-01   1.00800           0
      9846 MEMB     86       CHL1     C26      CTL3    -0.270000       12.0110           0
      9847 MEMB     86       CHL1     H26A     HAL3     0.900000E-01   1.00800           0
      9848 MEMB     86       CHL1     H26B     HAL3     0.900000E-01   1.00800           0
      9849 MEMB     86       CHL1     H26C     HAL3     0.900000E-01   1.00800           0
      9850 MEMB     86       CHL1     C27      CTL3    -0.270000       12.0110           0
      9851 MEMB     86       CHL1     H27A     HAL3     0.900000E-01   1.00800           0
      9852 MEMB     86       CHL1     H27B     HAL3     0.900000E-01   1.00800           0
      9853 MEMB     86       CHL1     H27C     HAL3     0.900000E-01   1.00800           0
      9854 MEMB     87       SAPC     N        NTL     -0.600000       14.0070           0
      9855 MEMB     87       SAPC     C12      CTL2    -0.100000       12.0110           0
      9856 MEMB     87       SAPC     H12A     HL       0.250000       1.00800           0
      9857 MEMB     87       SAPC     H12B     HL       0.250000       1.00800           0
      9858 MEMB     87       SAPC     C13      CTL5    -0.350000       12.0110           0
      9859 MEMB     87       SAPC     H13A     HL       0.250000       1.00800           0
      9860 MEMB     87       SAPC     H13B     HL       0.250000       1.00800           0
      9861 MEMB     87       SAPC     H13C     HL       0.250000       1.00800           0
      9862 MEMB     87       SAPC     C14      CTL5    -0.350000       12.0110           0
      9863 MEMB     87       SAPC     H14A     HL       0.250000       1.00800           0
      9864 MEMB     87       SAPC     H14B     HL       0.250000       1.00800           0
      9865 MEMB     87       SAPC     H14C     HL       0.250000       1.00800           0
      9866 MEMB     87       SAPC     C15      CTL5    -0.350000       12.0110           0
      9867 MEMB     87       SAPC     H15A     HL       0.250000       1.00800           0
      9868 MEMB     87       SAPC     H15B     HL       0.250000       1.00800           0
      9869 MEMB     87       SAPC     H15C     HL       0.250000       1.00800           0
      9870 MEMB     87       SAPC     C11      CTL2    -0.800000E-01   12.0110           0
      9871 MEMB     87       SAPC     H11A     HAL2     0.900000E-01   1.00800           0
      9872 MEMB     87       SAPC     H11B     HAL2     0.900000E-01   1.00800           0
      9873 MEMB     87       SAPC     P        PL        1.50000       30.9740           0
      9874 MEMB     87       SAPC     O13      O2L     -0.780000       15.9994           0
      9875 MEMB     87       SAPC     O14      O2L     -0.780000       15.9994           0
      9876 MEMB     87       SAPC     O12      OSLP    -0.570000       15.9994           0
      9877 MEMB     87       SAPC     O11      OSLP    -0.570000       15.9994           0
      9878 MEMB     87       SAPC     C1       CTL2    -0.800000E-01   12.0110           0
      9879 MEMB     87       SAPC     HA       HAL2     0.900000E-01   1.00800           0
      9880 MEMB     87       SAPC     HB       HAL2     0.900000E-01   1.00800           0
      9881 MEMB     87       SAPC     C2       CTL1     0.170000       12.0110           0
      9882 MEMB     87       SAPC     HS       HAL1     0.900000E-01   1.00800           0
      9883 MEMB     87       SAPC     O21      OSL     -0.490000       15.9994           0
      9884 MEMB     87       SAPC     C21      CL       0.900000       12.0110           0
      9885 MEMB     87       SAPC     O22      OBL     -0.630000       15.9994           0
      9886 MEMB     87       SAPC     C22      CTL2    -0.220000       12.0110           0
      9887 MEMB     87       SAPC     H2R      HAL2     0.900000E-01   1.00800           0
      9888 MEMB     87       SAPC     H2S      HAL2     0.900000E-01   1.00800           0
      9889 MEMB     87       SAPC     C3       CTL2     0.800000E-01   12.0110           0
      9890 MEMB     87       SAPC     HX       HAL2     0.900000E-01   1.00800           0
      9891 MEMB     87       SAPC     HY       HAL2     0.900000E-01   1.00800           0
      9892 MEMB     87       SAPC     O31      OSL     -0.490000       15.9994           0
      9893 MEMB     87       SAPC     C31      CL       0.900000       12.0110           0
      9894 MEMB     87       SAPC     O32      OBL     -0.630000       15.9994           0
      9895 MEMB     87       SAPC     C32      CTL2    -0.220000       12.0110           0
      9896 MEMB     87       SAPC     H2X      HAL2     0.900000E-01   1.00800           0
      9897 MEMB     87       SAPC     H2Y      HAL2     0.900000E-01   1.00800           0
      9898 MEMB     87       SAPC     C23      CTL2    -0.180000       12.0110           0
      9899 MEMB     87       SAPC     H3R      HAL2     0.900000E-01   1.00800           0
      9900 MEMB     87       SAPC     H3S      HAL2     0.900000E-01   1.00800           0
      9901 MEMB     87       SAPC     C24      CTL2    -0.180000       12.0110           0
      9902 MEMB     87       SAPC     H4R      HAL2     0.900000E-01   1.00800           0
      9903 MEMB     87       SAPC     H4S      HAL2     0.900000E-01   1.00800           0
      9904 MEMB     87       SAPC     C25      CEL1    -0.150000       12.0110           0
      9905 MEMB     87       SAPC     H5R      HEL1     0.150000       1.00800           0
      9906 MEMB     87       SAPC     C26      CEL1    -0.150000       12.0110           0
      9907 MEMB     87       SAPC     H6R      HEL1     0.150000       1.00800           0
      9908 MEMB     87       SAPC     C27      CTL2    -0.180000       12.0110           0
      9909 MEMB     87       SAPC     H7R      HAL2     0.900000E-01   1.00800           0
      9910 MEMB     87       SAPC     H7S      HAL2     0.900000E-01   1.00800           0
      9911 MEMB     87       SAPC     C28      CEL1    -0.150000       12.0110           0
      9912 MEMB     87       SAPC     H8R      HEL1     0.150000       1.00800           0
      9913 MEMB     87       SAPC     C29      CEL1    -0.150000       12.0110           0
      9914 MEMB     87       SAPC     H9R      HEL1     0.150000       1.00800           0
      9915 MEMB     87       SAPC     C210     CTL2    -0.180000       12.0110           0
      9916 MEMB     87       SAPC     H10R     HAL2     0.900000E-01   1.00800           0
      9917 MEMB     87       SAPC     H10S     HAL2     0.900000E-01   1.00800           0
      9918 MEMB     87       SAPC     C211     CEL1    -0.150000       12.0110           0
      9919 MEMB     87       SAPC     H11R     HEL1     0.150000       1.00800           0
      9920 MEMB     87       SAPC     C212     CEL1    -0.150000       12.0110           0
      9921 MEMB     87       SAPC     H12R     HEL1     0.150000       1.00800           0
      9922 MEMB     87       SAPC     C213     CTL2    -0.180000       12.0110           0
      9923 MEMB     87       SAPC     H13R     HAL2     0.900000E-01   1.00800           0
      9924 MEMB     87       SAPC     H13S     HAL2     0.900000E-01   1.00800           0
      9925 MEMB     87       SAPC     C214     CEL1    -0.150000       12.0110           0
      9926 MEMB     87       SAPC     H14R     HEL1     0.150000       1.00800           0
      9927 MEMB     87       SAPC     C215     CEL1    -0.150000       12.0110           0
      9928 MEMB     87       SAPC     H15R     HEL1     0.150000       1.00800           0
      9929 MEMB     87       SAPC     C216     CTL2    -0.180000       12.0110           0
      9930 MEMB     87       SAPC     H16R     HAL2     0.900000E-01   1.00800           0
      9931 MEMB     87       SAPC     H16S     HAL2     0.900000E-01   1.00800           0
      9932 MEMB     87       SAPC     C217     CTL2    -0.180000       12.0110           0
      9933 MEMB     87       SAPC     H17R     HAL2     0.900000E-01   1.00800           0
      9934 MEMB     87       SAPC     H17S     HAL2     0.900000E-01   1.00800           0
      9935 MEMB     87       SAPC     C218     CTL2    -0.270000       12.0110           0
      9936 MEMB     87       SAPC     H18R     HAL2     0.900000E-01   1.00800           0
      9937 MEMB     87       SAPC     H18S     HAL2     0.900000E-01   1.00800           0
      9938 MEMB     87       SAPC     C219     CTL2    -0.180000       12.0110           0
      9939 MEMB     87       SAPC     H19R     HAL2     0.900000E-01   1.00800           0
      9940 MEMB     87       SAPC     H19S     HAL2     0.900000E-01   1.00800           0
      9941 MEMB     87       SAPC     C220     CTL3    -0.180000       12.0110           0
      9942 MEMB     87       SAPC     H20R     HAL3     0.900000E-01   1.00800           0
      9943 MEMB     87       SAPC     H20S     HAL3     0.900000E-01   1.00800           0
      9944 MEMB     87       SAPC     H20T     HAL3     0.900000E-01   1.00800           0
      9945 MEMB     87       SAPC     C33      CTL2    -0.180000       12.0110           0
      9946 MEMB     87       SAPC     H3X      HAL2     0.900000E-01   1.00800           0
      9947 MEMB     87       SAPC     H3Y      HAL2     0.900000E-01   1.00800           0
      9948 MEMB     87       SAPC     C34      CTL2    -0.180000       12.0110           0
      9949 MEMB     87       SAPC     H4X      HAL2     0.900000E-01   1.00800           0
      9950 MEMB     87       SAPC     H4Y      HAL2     0.900000E-01   1.00800           0
      9951 MEMB     87       SAPC     C35      CTL2    -0.180000       12.0110           0
      9952 MEMB     87       SAPC     H5X      HAL2     0.900000E-01   1.00800           0
      9953 MEMB     87       SAPC     H5Y      HAL2     0.900000E-01   1.00800           0
      9954 MEMB     87       SAPC     C36      CTL2    -0.180000       12.0110           0
      9955 MEMB     87       SAPC     H6X      HAL2     0.900000E-01   1.00800           0
      9956 MEMB     87       SAPC     H6Y      HAL2     0.900000E-01   1.00800           0
      9957 MEMB     87       SAPC     C37      CTL2    -0.180000       12.0110           0
      9958 MEMB     87       SAPC     H7X      HAL2     0.900000E-01   1.00800           0
      9959 MEMB     87       SAPC     H7Y      HAL2     0.900000E-01   1.00800           0
      9960 MEMB     87       SAPC     C38      CTL2    -0.180000       12.0110           0
      9961 MEMB     87       SAPC     H8X      HAL2     0.900000E-01   1.00800           0
      9962 MEMB     87       SAPC     H8Y      HAL2     0.900000E-01   1.00800           0
      9963 MEMB     87       SAPC     C39      CTL2    -0.180000       12.0110           0
      9964 MEMB     87       SAPC     H9X      HAL2     0.900000E-01   1.00800           0
      9965 MEMB     87       SAPC     H9Y      HAL2     0.900000E-01   1.00800           0
      9966 MEMB     87       SAPC     C310     CTL2    -0.180000       12.0110           0
      9967 MEMB     87       SAPC     H10X     HAL2     0.900000E-01   1.00800           0
      9968 MEMB     87       SAPC     H10Y     HAL2     0.900000E-01   1.00800           0
      9969 MEMB     87       SAPC     C311     CTL2    -0.180000       12.0110           0
      9970 MEMB     87       SAPC     H11X     HAL2     0.900000E-01   1.00800           0
      9971 MEMB     87       SAPC     H11Y     HAL2     0.900000E-01   1.00800           0
      9972 MEMB     87       SAPC     C312     CTL2    -0.180000       12.0110           0
      9973 MEMB     87       SAPC     H12X     HAL2     0.900000E-01   1.00800           0
      9974 MEMB     87       SAPC     H12Y     HAL2     0.900000E-01   1.00800           0
      9975 MEMB     87       SAPC     C313     CTL2    -0.180000       12.0110           0
      9976 MEMB     87       SAPC     H13X     HAL2     0.900000E-01   1.00800           0
      9977 MEMB     87       SAPC     H13Y     HAL2     0.900000E-01   1.00800           0
      9978 MEMB     87       SAPC     C314     CTL2    -0.180000       12.0110           0
      9979 MEMB     87       SAPC     H14X     HAL2     0.900000E-01   1.00800           0
      9980 MEMB     87       SAPC     H14Y     HAL2     0.900000E-01   1.00800           0
      9981 MEMB     87       SAPC     C315     CTL2    -0.180000       12.0110           0
      9982 MEMB     87       SAPC     H15X     HAL2     0.900000E-01   1.00800           0
      9983 MEMB     87       SAPC     H15Y     HAL2     0.900000E-01   1.00800           0
      9984 MEMB     87       SAPC     C316     CTL2    -0.180000       12.0110           0
      9985 MEMB     87       SAPC     H16X     HAL2     0.900000E-01   1.00800           0
      9986 MEMB     87       SAPC     H16Y     HAL2     0.900000E-01   1.00800           0
      9987 MEMB     87       SAPC     C317     CTL2    -0.180000       12.0110           0
      9988 MEMB     87       SAPC     H17X     HAL2     0.900000E-01   1.00800           0
      9989 MEMB     87       SAPC     H17Y     HAL2     0.900000E-01   1.00800           0
      9990 MEMB     87       SAPC     C318     CTL3    -0.270000       12.0110           0
      9991 MEMB     87       SAPC     H18X     HAL3     0.900000E-01   1.00800           0
      9992 MEMB     87       SAPC     H18Y     HAL3     0.900000E-01   1.00800           0
      9993 MEMB     87       SAPC     H18Z     HAL3     0.900000E-01   1.00800           0
      9994 MEMB     88       SAPE     N        NH3L    -0.300000       14.0070           0
      9995 MEMB     88       SAPE     HN1      HCL      0.330000       1.00800           0
      9996 MEMB     88       SAPE     HN2      HCL      0.330000       1.00800           0
      9997 MEMB     88       SAPE     HN3      HCL      0.330000       1.00800           0
      9998 MEMB     88       SAPE     C12      CTL2     0.130000       12.0110           0
      9999 MEMB     88       SAPE     H12A     HAL2     0.900000E-01   1.00800           0
     10000 MEMB     88       SAPE     H12B     HAL2     0.900000E-01   1.00800           0
     10001 MEMB     88       SAPE     C11      CTL2    -0.800000E-01   12.0110           0
     10002 MEMB     88       SAPE     H11A     HAL2     0.900000E-01   1.00800           0
     10003 MEMB     88       SAPE     H11B     HAL2     0.900000E-01   1.00800           0
     10004 MEMB     88       SAPE     P        PL        1.50000       30.9740           0
     10005 MEMB     88       SAPE     O13      O2L     -0.780000       15.9994           0
     10006 MEMB     88       SAPE     O14      O2L     -0.780000       15.9994           0
     10007 MEMB     88       SAPE     O12      OSLP    -0.570000       15.9994           0
     10008 MEMB     88       SAPE     O11      OSLP    -0.570000       15.9994           0
     10009 MEMB     88       SAPE     C1       CTL2    -0.800000E-01   12.0110           0
     10010 MEMB     88       SAPE     HA       HAL2     0.900000E-01   1.00800           0
     10011 MEMB     88       SAPE     HB       HAL2     0.900000E-01   1.00800           0
     10012 MEMB     88       SAPE     C2       CTL1     0.170000       12.0110           0
     10013 MEMB     88       SAPE     HS       HAL1     0.900000E-01   1.00800           0
     10014 MEMB     88       SAPE     O21      OSL     -0.490000       15.9994           0
     10015 MEMB     88       SAPE     C21      CL       0.900000       12.0110           0
     10016 MEMB     88       SAPE     O22      OBL     -0.630000       15.9994           0
     10017 MEMB     88       SAPE     C22      CTL2    -0.220000       12.0110           0
     10018 MEMB     88       SAPE     H2R      HAL2     0.900000E-01   1.00800           0
     10019 MEMB     88       SAPE     H2S      HAL2     0.900000E-01   1.00800           0
     10020 MEMB     88       SAPE     C3       CTL2     0.800000E-01   12.0110           0
     10021 MEMB     88       SAPE     HX       HAL2     0.900000E-01   1.00800           0
     10022 MEMB     88       SAPE     HY       HAL2     0.900000E-01   1.00800           0
     10023 MEMB     88       SAPE     O31      OSL     -0.490000       15.9994           0
     10024 MEMB     88       SAPE     C31      CL       0.900000       12.0110           0
     10025 MEMB     88       SAPE     O32      OBL     -0.630000       15.9994           0
     10026 MEMB     88       SAPE     C32      CTL2    -0.220000       12.0110           0
     10027 MEMB     88       SAPE     H2X      HAL2     0.900000E-01   1.00800           0
     10028 MEMB     88       SAPE     H2Y      HAL2     0.900000E-01   1.00800           0
     10029 MEMB     88       SAPE     C23      CTL2    -0.180000       12.0110           0
     10030 MEMB     88       SAPE     H3R      HAL2     0.900000E-01   1.00800           0
     10031 MEMB     88       SAPE     H3S      HAL2     0.900000E-01   1.00800           0
     10032 MEMB     88       SAPE     C24      CTL2    -0.180000       12.0110           0
     10033 MEMB     88       SAPE     H4R      HAL2     0.900000E-01   1.00800           0
     10034 MEMB     88       SAPE     H4S      HAL2     0.900000E-01   1.00800           0
     10035 MEMB     88       SAPE     C25      CEL1    -0.150000       12.0110           0
     10036 MEMB     88       SAPE     H5R      HEL1     0.150000       1.00800           0
     10037 MEMB     88       SAPE     C26      CEL1    -0.150000       12.0110           0
     10038 MEMB     88       SAPE     H6R      HEL1     0.150000       1.00800           0
     10039 MEMB     88       SAPE     C27      CTL2    -0.180000       12.0110           0
     10040 MEMB     88       SAPE     H7R      HAL2     0.900000E-01   1.00800           0
     10041 MEMB     88       SAPE     H7S      HAL2     0.900000E-01   1.00800           0
     10042 MEMB     88       SAPE     C28      CEL1    -0.150000       12.0110           0
     10043 MEMB     88       SAPE     H8R      HEL1     0.150000       1.00800           0
     10044 MEMB     88       SAPE     C29      CEL1    -0.150000       12.0110           0
     10045 MEMB     88       SAPE     H9R      HEL1     0.150000       1.00800           0
     10046 MEMB     88       SAPE     C210     CTL2    -0.180000       12.0110           0
     10047 MEMB     88       SAPE     H10R     HAL2     0.900000E-01   1.00800           0
     10048 MEMB     88       SAPE     H10S     HAL2     0.900000E-01   1.00800           0
     10049 MEMB     88       SAPE     C211     CEL1    -0.150000       12.0110           0
     10050 MEMB     88       SAPE     H11R     HEL1     0.150000       1.00800           0
     10051 MEMB     88       SAPE     C212     CEL1    -0.150000       12.0110           0
     10052 MEMB     88       SAPE     H12R     HEL1     0.150000       1.00800           0
     10053 MEMB     88       SAPE     C213     CTL2    -0.180000       12.0110           0
     10054 MEMB     88       SAPE     H13R     HAL2     0.900000E-01   1.00800           0
     10055 MEMB     88       SAPE     H13S     HAL2     0.900000E-01   1.00800           0
     10056 MEMB     88       SAPE     C214     CEL1    -0.150000       12.0110           0
     10057 MEMB     88       SAPE     H14R     HEL1     0.150000       1.00800           0
     10058 MEMB     88       SAPE     C215     CEL1    -0.150000       12.0110           0
     10059 MEMB     88       SAPE     H15R     HEL1     0.150000       1.00800           0
     10060 MEMB     88       SAPE     C216     CTL2    -0.180000       12.0110           0
     10061 MEMB     88       SAPE     H16R     HAL2     0.900000E-01   1.00800           0
     10062 MEMB     88       SAPE     H16S     HAL2     0.900000E-01   1.00800           0
     10063 MEMB     88       SAPE     C217     CTL2    -0.180000       12.0110           0
     10064 MEMB     88       SAPE     H17R     HAL2     0.900000E-01   1.00800           0
     10065 MEMB     88       SAPE     H17S     HAL2     0.900000E-01   1.00800           0
     10066 MEMB     88       SAPE     C218     CTL2    -0.180000       12.0110           0
     10067 MEMB     88       SAPE     H18R     HAL2     0.900000E-01   1.00800           0
     10068 MEMB     88       SAPE     H18S     HAL2     0.900000E-01   1.00800           0
     10069 MEMB     88       SAPE     C219     CTL2    -0.180000       12.0110           0
     10070 MEMB     88       SAPE     H19R     HAL2     0.900000E-01   1.00800           0
     10071 MEMB     88       SAPE     H19S     HAL2     0.900000E-01   1.00800           0
     10072 MEMB     88       SAPE     C220     CTL3    -0.270000       12.0110           0
     10073 MEMB     88       SAPE     H20R     HAL3     0.900000E-01   1.00800           0
     10074 MEMB     88       SAPE     H20S     HAL3     0.900000E-01   1.00800           0
     10075 MEMB     88       SAPE     H20T     HAL3     0.900000E-01   1.00800           0
     10076 MEMB     88       SAPE     C33      CTL2    -0.180000       12.0110           0
     10077 MEMB     88       SAPE     H3X      HAL2     0.900000E-01   1.00800           0
     10078 MEMB     88       SAPE     H3Y      HAL2     0.900000E-01   1.00800           0
     10079 MEMB     88       SAPE     C34      CTL2    -0.180000       12.0110           0
     10080 MEMB     88       SAPE     H4X      HAL2     0.900000E-01   1.00800           0
     10081 MEMB     88       SAPE     H4Y      HAL2     0.900000E-01   1.00800           0
     10082 MEMB     88       SAPE     C35      CTL2    -0.180000       12.0110           0
     10083 MEMB     88       SAPE     H5X      HAL2     0.900000E-01   1.00800           0
     10084 MEMB     88       SAPE     H5Y      HAL2     0.900000E-01   1.00800           0
     10085 MEMB     88       SAPE     C36      CTL2    -0.180000       12.0110           0
     10086 MEMB     88       SAPE     H6X      HAL2     0.900000E-01   1.00800           0
     10087 MEMB     88       SAPE     H6Y      HAL2     0.900000E-01   1.00800           0
     10088 MEMB     88       SAPE     C37      CTL2    -0.180000       12.0110           0
     10089 MEMB     88       SAPE     H7X      HAL2     0.900000E-01   1.00800           0
     10090 MEMB     88       SAPE     H7Y      HAL2     0.900000E-01   1.00800           0
     10091 MEMB     88       SAPE     C38      CTL2    -0.180000       12.0110           0
     10092 MEMB     88       SAPE     H8X      HAL2     0.900000E-01   1.00800           0
     10093 MEMB     88       SAPE     H8Y      HAL2     0.900000E-01   1.00800           0
     10094 MEMB     88       SAPE     C39      CTL2    -0.180000       12.0110           0
     10095 MEMB     88       SAPE     H9X      HAL2     0.900000E-01   1.00800           0
     10096 MEMB     88       SAPE     H9Y      HAL2     0.900000E-01   1.00800           0
     10097 MEMB     88       SAPE     C310     CTL2    -0.180000       12.0110           0
     10098 MEMB     88       SAPE     H10X     HAL2     0.900000E-01   1.00800           0
     10099 MEMB     88       SAPE     H10Y     HAL2     0.900000E-01   1.00800           0
     10100 MEMB     88       SAPE     C311     CTL2    -0.180000       12.0110           0
     10101 MEMB     88       SAPE     H11X     HAL2     0.900000E-01   1.00800           0
     10102 MEMB     88       SAPE     H11Y     HAL2     0.900000E-01   1.00800           0
     10103 MEMB     88       SAPE     C312     CTL2    -0.180000       12.0110           0
     10104 MEMB     88       SAPE     H12X     HAL2     0.900000E-01   1.00800           0
     10105 MEMB     88       SAPE     H12Y     HAL2     0.900000E-01   1.00800           0
     10106 MEMB     88       SAPE     C313     CTL2    -0.180000       12.0110           0
     10107 MEMB     88       SAPE     H13X     HAL2     0.900000E-01   1.00800           0
     10108 MEMB     88       SAPE     H13Y     HAL2     0.900000E-01   1.00800           0
     10109 MEMB     88       SAPE     C314     CTL2    -0.180000       12.0110           0
     10110 MEMB     88       SAPE     H14X     HAL2     0.900000E-01   1.00800           0
     10111 MEMB     88       SAPE     H14Y     HAL2     0.900000E-01   1.00800           0
     10112 MEMB     88       SAPE     C315     CTL2    -0.180000       12.0110           0
     10113 MEMB     88       SAPE     H15X     HAL2     0.900000E-01   1.00800           0
     10114 MEMB     88       SAPE     H15Y     HAL2     0.900000E-01   1.00800           0
     10115 MEMB     88       SAPE     C316     CTL2    -0.180000       12.0110           0
     10116 MEMB     88       SAPE     H16X     HAL2     0.900000E-01   1.00800           0
     10117 MEMB     88       SAPE     H16Y     HAL2     0.900000E-01   1.00800           0
     10118 MEMB     88       SAPE     C317     CTL2    -0.180000       12.0110           0
     10119 MEMB     88       SAPE     H17X     HAL2     0.900000E-01   1.00800           0
     10120 MEMB     88       SAPE     H17Y     HAL2     0.900000E-01   1.00800           0
     10121 MEMB     88       SAPE     C318     CTL3    -0.270000       12.0110           0
     10122 MEMB     88       SAPE     H18X     HAL3     0.900000E-01   1.00800           0
     10123 MEMB     88       SAPE     H18Y     HAL3     0.900000E-01   1.00800           0
     10124 MEMB     88       SAPE     H18Z     HAL3     0.900000E-01   1.00800           0
     10125 MEMB     89       SAPE     N        NH3L    -0.300000       14.0070           0
     10126 MEMB     89       SAPE     HN1      HCL      0.330000       1.00800           0
     10127 MEMB     89       SAPE     HN2      HCL      0.330000       1.00800           0
     10128 MEMB     89       SAPE     HN3      HCL      0.330000       1.00800           0
     10129 MEMB     89       SAPE     C12      CTL2     0.130000       12.0110           0
     10130 MEMB     89       SAPE     H12A     HAL2     0.900000E-01   1.00800           0
     10131 MEMB     89       SAPE     H12B     HAL2     0.900000E-01   1.00800           0
     10132 MEMB     89       SAPE     C11      CTL2    -0.800000E-01   12.0110           0
     10133 MEMB     89       SAPE     H11A     HAL2     0.900000E-01   1.00800           0
     10134 MEMB     89       SAPE     H11B     HAL2     0.900000E-01   1.00800           0
     10135 MEMB     89       SAPE     P        PL        1.50000       30.9740           0
     10136 MEMB     89       SAPE     O13      O2L     -0.780000       15.9994           0
     10137 MEMB     89       SAPE     O14      O2L     -0.780000       15.9994           0
     10138 MEMB     89       SAPE     O12      OSLP    -0.570000       15.9994           0
     10139 MEMB     89       SAPE     O11      OSLP    -0.570000       15.9994           0
     10140 MEMB     89       SAPE     C1       CTL2    -0.800000E-01   12.0110           0
     10141 MEMB     89       SAPE     HA       HAL2     0.900000E-01   1.00800           0
     10142 MEMB     89       SAPE     HB       HAL2     0.900000E-01   1.00800           0
     10143 MEMB     89       SAPE     C2       CTL1     0.170000       12.0110           0
     10144 MEMB     89       SAPE     HS       HAL1     0.900000E-01   1.00800           0
     10145 MEMB     89       SAPE     O21      OSL     -0.490000       15.9994           0
     10146 MEMB     89       SAPE     C21      CL       0.900000       12.0110           0
     10147 MEMB     89       SAPE     O22      OBL     -0.630000       15.9994           0
     10148 MEMB     89       SAPE     C22      CTL2    -0.220000       12.0110           0
     10149 MEMB     89       SAPE     H2R      HAL2     0.900000E-01   1.00800           0
     10150 MEMB     89       SAPE     H2S      HAL2     0.900000E-01   1.00800           0
     10151 MEMB     89       SAPE     C3       CTL2     0.800000E-01   12.0110           0
     10152 MEMB     89       SAPE     HX       HAL2     0.900000E-01   1.00800           0
     10153 MEMB     89       SAPE     HY       HAL2     0.900000E-01   1.00800           0
     10154 MEMB     89       SAPE     O31      OSL     -0.490000       15.9994           0
     10155 MEMB     89       SAPE     C31      CL       0.900000       12.0110           0
     10156 MEMB     89       SAPE     O32      OBL     -0.630000       15.9994           0
     10157 MEMB     89       SAPE     C32      CTL2    -0.220000       12.0110           0
     10158 MEMB     89       SAPE     H2X      HAL2     0.900000E-01   1.00800           0
     10159 MEMB     89       SAPE     H2Y      HAL2     0.900000E-01   1.00800           0
     10160 MEMB     89       SAPE     C23      CTL2    -0.180000       12.0110           0
     10161 MEMB     89       SAPE     H3R      HAL2     0.900000E-01   1.00800           0
     10162 MEMB     89       SAPE     H3S      HAL2     0.900000E-01   1.00800           0
     10163 MEMB     89       SAPE     C24      CTL2    -0.180000       12.0110           0
     10164 MEMB     89       SAPE     H4R      HAL2     0.900000E-01   1.00800           0
     10165 MEMB     89       SAPE     H4S      HAL2     0.900000E-01   1.00800           0
     10166 MEMB     89       SAPE     C25      CEL1    -0.150000       12.0110           0
     10167 MEMB     89       SAPE     H5R      HEL1     0.150000       1.00800           0
     10168 MEMB     89       SAPE     C26      CEL1    -0.150000       12.0110           0
     10169 MEMB     89       SAPE     H6R      HEL1     0.150000       1.00800           0
     10170 MEMB     89       SAPE     C27      CTL2    -0.180000       12.0110           0
     10171 MEMB     89       SAPE     H7R      HAL2     0.900000E-01   1.00800           0
     10172 MEMB     89       SAPE     H7S      HAL2     0.900000E-01   1.00800           0
     10173 MEMB     89       SAPE     C28      CEL1    -0.150000       12.0110           0
     10174 MEMB     89       SAPE     H8R      HEL1     0.150000       1.00800           0
     10175 MEMB     89       SAPE     C29      CEL1    -0.150000       12.0110           0
     10176 MEMB     89       SAPE     H9R      HEL1     0.150000       1.00800           0
     10177 MEMB     89       SAPE     C210     CTL2    -0.180000       12.0110           0
     10178 MEMB     89       SAPE     H10R     HAL2     0.900000E-01   1.00800           0
     10179 MEMB     89       SAPE     H10S     HAL2     0.900000E-01   1.00800           0
     10180 MEMB     89       SAPE     C211     CEL1    -0.150000       12.0110           0
     10181 MEMB     89       SAPE     H11R     HEL1     0.150000       1.00800           0
     10182 MEMB     89       SAPE     C212     CEL1    -0.150000       12.0110           0
     10183 MEMB     89       SAPE     H12R     HEL1     0.150000       1.00800           0
     10184 MEMB     89       SAPE     C213     CTL2    -0.180000       12.0110           0
     10185 MEMB     89       SAPE     H13R     HAL2     0.900000E-01   1.00800           0
     10186 MEMB     89       SAPE     H13S     HAL2     0.900000E-01   1.00800           0
     10187 MEMB     89       SAPE     C214     CEL1    -0.150000       12.0110           0
     10188 MEMB     89       SAPE     H14R     HEL1     0.150000       1.00800           0
     10189 MEMB     89       SAPE     C215     CEL1    -0.150000       12.0110           0
     10190 MEMB     89       SAPE     H15R     HEL1     0.150000       1.00800           0
     10191 MEMB     89       SAPE     C216     CTL2    -0.180000       12.0110           0
     10192 MEMB     89       SAPE     H16R     HAL2     0.900000E-01   1.00800           0
     10193 MEMB     89       SAPE     H16S     HAL2     0.900000E-01   1.00800           0
     10194 MEMB     89       SAPE     C217     CTL2    -0.180000       12.0110           0
     10195 MEMB     89       SAPE     H17R     HAL2     0.900000E-01   1.00800           0
     10196 MEMB     89       SAPE     H17S     HAL2     0.900000E-01   1.00800           0
     10197 MEMB     89       SAPE     C218     CTL2    -0.180000       12.0110           0
     10198 MEMB     89       SAPE     H18R     HAL2     0.900000E-01   1.00800           0
     10199 MEMB     89       SAPE     H18S     HAL2     0.900000E-01   1.00800           0
     10200 MEMB     89       SAPE     C219     CTL2    -0.180000       12.0110           0
     10201 MEMB     89       SAPE     H19R     HAL2     0.900000E-01   1.00800           0
     10202 MEMB     89       SAPE     H19S     HAL2     0.900000E-01   1.00800           0
     10203 MEMB     89       SAPE     C220     CTL3    -0.270000       12.0110           0
     10204 MEMB     89       SAPE     H20R     HAL3     0.900000E-01   1.00800           0
     10205 MEMB     89       SAPE     H20S     HAL3     0.900000E-01   1.00800           0
     10206 MEMB     89       SAPE     H20T     HAL3     0.900000E-01   1.00800           0
     10207 MEMB     89       SAPE     C33      CTL2    -0.180000       12.0110           0
     10208 MEMB     89       SAPE     H3X      HAL2     0.900000E-01   1.00800           0
     10209 MEMB     89       SAPE     H3Y      HAL2     0.900000E-01   1.00800           0
     10210 MEMB     89       SAPE     C34      CTL2    -0.180000       12.0110           0
     10211 MEMB     89       SAPE     H4X      HAL2     0.900000E-01   1.00800           0
     10212 MEMB     89       SAPE     H4Y      HAL2     0.900000E-01   1.00800           0
     10213 MEMB     89       SAPE     C35      CTL2    -0.180000       12.0110           0
     10214 MEMB     89       SAPE     H5X      HAL2     0.900000E-01   1.00800           0
     10215 MEMB     89       SAPE     H5Y      HAL2     0.900000E-01   1.00800           0
     10216 MEMB     89       SAPE     C36      CTL2    -0.180000       12.0110           0
     10217 MEMB     89       SAPE     H6X      HAL2     0.900000E-01   1.00800           0
     10218 MEMB     89       SAPE     H6Y      HAL2     0.900000E-01   1.00800           0
     10219 MEMB     89       SAPE     C37      CTL2    -0.180000       12.0110           0
     10220 MEMB     89       SAPE     H7X      HAL2     0.900000E-01   1.00800           0
     10221 MEMB     89       SAPE     H7Y      HAL2     0.900000E-01   1.00800           0
     10222 MEMB     89       SAPE     C38      CTL2    -0.180000       12.0110           0
     10223 MEMB     89       SAPE     H8X      HAL2     0.900000E-01   1.00800           0
     10224 MEMB     89       SAPE     H8Y      HAL2     0.900000E-01   1.00800           0
     10225 MEMB     89       SAPE     C39      CTL2    -0.180000       12.0110           0
     10226 MEMB     89       SAPE     H9X      HAL2     0.900000E-01   1.00800           0
     10227 MEMB     89       SAPE     H9Y      HAL2     0.900000E-01   1.00800           0
     10228 MEMB     89       SAPE     C310     CTL2    -0.180000       12.0110           0
     10229 MEMB     89       SAPE     H10X     HAL2     0.900000E-01   1.00800           0
     10230 MEMB     89       SAPE     H10Y     HAL2     0.900000E-01   1.00800           0
     10231 MEMB     89       SAPE     C311     CTL2    -0.180000       12.0110           0
     10232 MEMB     89       SAPE     H11X     HAL2     0.900000E-01   1.00800           0
     10233 MEMB     89       SAPE     H11Y     HAL2     0.900000E-01   1.00800           0
     10234 MEMB     89       SAPE     C312     CTL2    -0.180000       12.0110           0
     10235 MEMB     89       SAPE     H12X     HAL2     0.900000E-01   1.00800           0
     10236 MEMB     89       SAPE     H12Y     HAL2     0.900000E-01   1.00800           0
     10237 MEMB     89       SAPE     C313     CTL2    -0.180000       12.0110           0
     10238 MEMB     89       SAPE     H13X     HAL2     0.900000E-01   1.00800           0
     10239 MEMB     89       SAPE     H13Y     HAL2     0.900000E-01   1.00800           0
     10240 MEMB     89       SAPE     C314     CTL2    -0.180000       12.0110           0
     10241 MEMB     89       SAPE     H14X     HAL2     0.900000E-01   1.00800           0
     10242 MEMB     89       SAPE     H14Y     HAL2     0.900000E-01   1.00800           0
     10243 MEMB     89       SAPE     C315     CTL2    -0.180000       12.0110           0
     10244 MEMB     89       SAPE     H15X     HAL2     0.900000E-01   1.00800           0
     10245 MEMB     89       SAPE     H15Y     HAL2     0.900000E-01   1.00800           0
     10246 MEMB     89       SAPE     C316     CTL2    -0.180000       12.0110           0
     10247 MEMB     89       SAPE     H16X     HAL2     0.900000E-01   1.00800           0
     10248 MEMB     89       SAPE     H16Y     HAL2     0.900000E-01   1.00800           0
     10249 MEMB     89       SAPE     C317     CTL2    -0.180000       12.0110           0
     10250 MEMB     89       SAPE     H17X     HAL2     0.900000E-01   1.00800           0
     10251 MEMB     89       SAPE     H17Y     HAL2     0.900000E-01   1.00800           0
     10252 MEMB     89       SAPE     C318     CTL3    -0.270000       12.0110           0
     10253 MEMB     89       SAPE     H18X     HAL3     0.900000E-01   1.00800           0
     10254 MEMB     89       SAPE     H18Y     HAL3     0.900000E-01   1.00800           0
     10255 MEMB     89       SAPE     H18Z     HAL3     0.900000E-01   1.00800           0
     10256 MEMB     90       SAPE     N        NH3L    -0.300000       14.0070           0
     10257 MEMB     90       SAPE     HN1      HCL      0.330000       1.00800           0
     10258 MEMB     90       SAPE     HN2      HCL      0.330000       1.00800           0
     10259 MEMB     90       SAPE     HN3      HCL      0.330000       1.00800           0
     10260 MEMB     90       SAPE     C12      CTL2     0.130000       12.0110           0
     10261 MEMB     90       SAPE     H12A     HAL2     0.900000E-01   1.00800           0
     10262 MEMB     90       SAPE     H12B     HAL2     0.900000E-01   1.00800           0
     10263 MEMB     90       SAPE     C11      CTL2    -0.800000E-01   12.0110           0
     10264 MEMB     90       SAPE     H11A     HAL2     0.900000E-01   1.00800           0
     10265 MEMB     90       SAPE     H11B     HAL2     0.900000E-01   1.00800           0
     10266 MEMB     90       SAPE     P        PL        1.50000       30.9740           0
     10267 MEMB     90       SAPE     O13      O2L     -0.780000       15.9994           0
     10268 MEMB     90       SAPE     O14      O2L     -0.780000       15.9994           0
     10269 MEMB     90       SAPE     O12      OSLP    -0.570000       15.9994           0
     10270 MEMB     90       SAPE     O11      OSLP    -0.570000       15.9994           0
     10271 MEMB     90       SAPE     C1       CTL2    -0.800000E-01   12.0110           0
     10272 MEMB     90       SAPE     HA       HAL2     0.900000E-01   1.00800           0
     10273 MEMB     90       SAPE     HB       HAL2     0.900000E-01   1.00800           0
     10274 MEMB     90       SAPE     C2       CTL1     0.170000       12.0110           0
     10275 MEMB     90       SAPE     HS       HAL1     0.900000E-01   1.00800           0
     10276 MEMB     90       SAPE     O21      OSL     -0.490000       15.9994           0
     10277 MEMB     90       SAPE     C21      CL       0.900000       12.0110           0
     10278 MEMB     90       SAPE     O22      OBL     -0.630000       15.9994           0
     10279 MEMB     90       SAPE     C22      CTL2    -0.220000       12.0110           0
     10280 MEMB     90       SAPE     H2R      HAL2     0.900000E-01   1.00800           0
     10281 MEMB     90       SAPE     H2S      HAL2     0.900000E-01   1.00800           0
     10282 MEMB     90       SAPE     C3       CTL2     0.800000E-01   12.0110           0
     10283 MEMB     90       SAPE     HX       HAL2     0.900000E-01   1.00800           0
     10284 MEMB     90       SAPE     HY       HAL2     0.900000E-01   1.00800           0
     10285 MEMB     90       SAPE     O31      OSL     -0.490000       15.9994           0
     10286 MEMB     90       SAPE     C31      CL       0.900000       12.0110           0
     10287 MEMB     90       SAPE     O32      OBL     -0.630000       15.9994           0
     10288 MEMB     90       SAPE     C32      CTL2    -0.220000       12.0110           0
     10289 MEMB     90       SAPE     H2X      HAL2     0.900000E-01   1.00800           0
     10290 MEMB     90       SAPE     H2Y      HAL2     0.900000E-01   1.00800           0
     10291 MEMB     90       SAPE     C23      CTL2    -0.180000       12.0110           0
     10292 MEMB     90       SAPE     H3R      HAL2     0.900000E-01   1.00800           0
     10293 MEMB     90       SAPE     H3S      HAL2     0.900000E-01   1.00800           0
     10294 MEMB     90       SAPE     C24      CTL2    -0.180000       12.0110           0
     10295 MEMB     90       SAPE     H4R      HAL2     0.900000E-01   1.00800           0
     10296 MEMB     90       SAPE     H4S      HAL2     0.900000E-01   1.00800           0
     10297 MEMB     90       SAPE     C25      CEL1    -0.150000       12.0110           0
     10298 MEMB     90       SAPE     H5R      HEL1     0.150000       1.00800           0
     10299 MEMB     90       SAPE     C26      CEL1    -0.150000       12.0110           0
     10300 MEMB     90       SAPE     H6R      HEL1     0.150000       1.00800           0
     10301 MEMB     90       SAPE     C27      CTL2    -0.180000       12.0110           0
     10302 MEMB     90       SAPE     H7R      HAL2     0.900000E-01   1.00800           0
     10303 MEMB     90       SAPE     H7S      HAL2     0.900000E-01   1.00800           0
     10304 MEMB     90       SAPE     C28      CEL1    -0.150000       12.0110           0
     10305 MEMB     90       SAPE     H8R      HEL1     0.150000       1.00800           0
     10306 MEMB     90       SAPE     C29      CEL1    -0.150000       12.0110           0
     10307 MEMB     90       SAPE     H9R      HEL1     0.150000       1.00800           0
     10308 MEMB     90       SAPE     C210     CTL2    -0.180000       12.0110           0
     10309 MEMB     90       SAPE     H10R     HAL2     0.900000E-01   1.00800           0
     10310 MEMB     90       SAPE     H10S     HAL2     0.900000E-01   1.00800           0
     10311 MEMB     90       SAPE     C211     CEL1    -0.150000       12.0110           0
     10312 MEMB     90       SAPE     H11R     HEL1     0.150000       1.00800           0
     10313 MEMB     90       SAPE     C212     CEL1    -0.150000       12.0110           0
     10314 MEMB     90       SAPE     H12R     HEL1     0.150000       1.00800           0
     10315 MEMB     90       SAPE     C213     CTL2    -0.180000       12.0110           0
     10316 MEMB     90       SAPE     H13R     HAL2     0.900000E-01   1.00800           0
     10317 MEMB     90       SAPE     H13S     HAL2     0.900000E-01   1.00800           0
     10318 MEMB     90       SAPE     C214     CEL1    -0.150000       12.0110           0
     10319 MEMB     90       SAPE     H14R     HEL1     0.150000       1.00800           0
     10320 MEMB     90       SAPE     C215     CEL1    -0.150000       12.0110           0
     10321 MEMB     90       SAPE     H15R     HEL1     0.150000       1.00800           0
     10322 MEMB     90       SAPE     C216     CTL2    -0.180000       12.0110           0
     10323 MEMB     90       SAPE     H16R     HAL2     0.900000E-01   1.00800           0
     10324 MEMB     90       SAPE     H16S     HAL2     0.900000E-01   1.00800           0
     10325 MEMB     90       SAPE     C217     CTL2    -0.180000       12.0110           0
     10326 MEMB     90       SAPE     H17R     HAL2     0.900000E-01   1.00800           0
     10327 MEMB     90       SAPE     H17S     HAL2     0.900000E-01   1.00800           0
     10328 MEMB     90       SAPE     C218     CTL2    -0.180000       12.0110           0
     10329 MEMB     90       SAPE     H18R     HAL2     0.900000E-01   1.00800           0
     10330 MEMB     90       SAPE     H18S     HAL2     0.900000E-01   1.00800           0
     10331 MEMB     90       SAPE     C219     CTL2    -0.180000       12.0110           0
     10332 MEMB     90       SAPE     H19R     HAL2     0.900000E-01   1.00800           0
     10333 MEMB     90       SAPE     H19S     HAL2     0.900000E-01   1.00800           0
     10334 MEMB     90       SAPE     C220     CTL3    -0.270000       12.0110           0
     10335 MEMB     90       SAPE     H20R     HAL3     0.900000E-01   1.00800           0
     10336 MEMB     90       SAPE     H20S     HAL3     0.900000E-01   1.00800           0
     10337 MEMB     90       SAPE     H20T     HAL3     0.900000E-01   1.00800           0
     10338 MEMB     90       SAPE     C33      CTL2    -0.180000       12.0110           0
     10339 MEMB     90       SAPE     H3X      HAL2     0.900000E-01   1.00800           0
     10340 MEMB     90       SAPE     H3Y      HAL2     0.900000E-01   1.00800           0
     10341 MEMB     90       SAPE     C34      CTL2    -0.180000       12.0110           0
     10342 MEMB     90       SAPE     H4X      HAL2     0.900000E-01   1.00800           0
     10343 MEMB     90       SAPE     H4Y      HAL2     0.900000E-01   1.00800           0
     10344 MEMB     90       SAPE     C35      CTL2    -0.180000       12.0110           0
     10345 MEMB     90       SAPE     H5X      HAL2     0.900000E-01   1.00800           0
     10346 MEMB     90       SAPE     H5Y      HAL2     0.900000E-01   1.00800           0
     10347 MEMB     90       SAPE     C36      CTL2    -0.180000       12.0110           0
     10348 MEMB     90       SAPE     H6X      HAL2     0.900000E-01   1.00800           0
     10349 MEMB     90       SAPE     H6Y      HAL2     0.900000E-01   1.00800           0
     10350 MEMB     90       SAPE     C37      CTL2    -0.180000       12.0110           0
     10351 MEMB     90       SAPE     H7X      HAL2     0.900000E-01   1.00800           0
     10352 MEMB     90       SAPE     H7Y      HAL2     0.900000E-01   1.00800           0
     10353 MEMB     90       SAPE     C38      CTL2    -0.180000       12.0110           0
     10354 MEMB     90       SAPE     H8X      HAL2     0.900000E-01   1.00800           0
     10355 MEMB     90       SAPE     H8Y      HAL2     0.900000E-01   1.00800           0
     10356 MEMB     90       SAPE     C39      CTL2    -0.180000       12.0110           0
     10357 MEMB     90       SAPE     H9X      HAL2     0.900000E-01   1.00800           0
     10358 MEMB     90       SAPE     H9Y      HAL2     0.900000E-01   1.00800           0
     10359 MEMB     90       SAPE     C310     CTL2    -0.180000       12.0110           0
     10360 MEMB     90       SAPE     H10X     HAL2     0.900000E-01   1.00800           0
     10361 MEMB     90       SAPE     H10Y     HAL2     0.900000E-01   1.00800           0
     10362 MEMB     90       SAPE     C311     CTL2    -0.180000       12.0110           0
     10363 MEMB     90       SAPE     H11X     HAL2     0.900000E-01   1.00800           0
     10364 MEMB     90       SAPE     H11Y     HAL2     0.900000E-01   1.00800           0
     10365 MEMB     90       SAPE     C312     CTL2    -0.180000       12.0110           0
     10366 MEMB     90       SAPE     H12X     HAL2     0.900000E-01   1.00800           0
     10367 MEMB     90       SAPE     H12Y     HAL2     0.900000E-01   1.00800           0
     10368 MEMB     90       SAPE     C313     CTL2    -0.180000       12.0110           0
     10369 MEMB     90       SAPE     H13X     HAL2     0.900000E-01   1.00800           0
     10370 MEMB     90       SAPE     H13Y     HAL2     0.900000E-01   1.00800           0
     10371 MEMB     90       SAPE     C314     CTL2    -0.180000       12.0110           0
     10372 MEMB     90       SAPE     H14X     HAL2     0.900000E-01   1.00800           0
     10373 MEMB     90       SAPE     H14Y     HAL2     0.900000E-01   1.00800           0
     10374 MEMB     90       SAPE     C315     CTL2    -0.180000       12.0110           0
     10375 MEMB     90       SAPE     H15X     HAL2     0.900000E-01   1.00800           0
     10376 MEMB     90       SAPE     H15Y     HAL2     0.900000E-01   1.00800           0
     10377 MEMB     90       SAPE     C316     CTL2    -0.180000       12.0110           0
     10378 MEMB     90       SAPE     H16X     HAL2     0.900000E-01   1.00800           0
     10379 MEMB     90       SAPE     H16Y     HAL2     0.900000E-01   1.00800           0
     10380 MEMB     90       SAPE     C317     CTL2    -0.180000       12.0110           0
     10381 MEMB     90       SAPE     H17X     HAL2     0.900000E-01   1.00800           0
     10382 MEMB     90       SAPE     H17Y     HAL2     0.900000E-01   1.00800           0
     10383 MEMB     90       SAPE     C318     CTL3    -0.270000       12.0110           0
     10384 MEMB     90       SAPE     H18X     HAL3     0.900000E-01   1.00800           0
     10385 MEMB     90       SAPE     H18Y     HAL3     0.900000E-01   1.00800           0
     10386 MEMB     90       SAPE     H18Z     HAL3     0.900000E-01   1.00800           0
     10387 MEMB     91       SAPS     N        NH3L    -0.300000       14.0070           0
     10388 MEMB     91       SAPS     HN1      HCL      0.330000       1.00800           0
     10389 MEMB     91       SAPS     HN2      HCL      0.330000       1.00800           0
     10390 MEMB     91       SAPS     HN3      HCL      0.330000       1.00800           0
     10391 MEMB     91       SAPS     C12      CTL1     0.210000       12.0110           0
     10392 MEMB     91       SAPS     H12A     HBL      0.100000       1.00800           0
     10393 MEMB     91       SAPS     C13      CCL      0.340000       12.0110           0
     10394 MEMB     91       SAPS     O13A     OCL     -0.670000       15.9994           0
     10395 MEMB     91       SAPS     O13B     OCL     -0.670000       15.9994           0
     10396 MEMB     91       SAPS     C11      CTL2    -0.800000E-01   12.0110           0
     10397 MEMB     91       SAPS     H11A     HAL2     0.900000E-01   1.00800           0
     10398 MEMB     91       SAPS     H11B     HAL2     0.900000E-01   1.00800           0
     10399 MEMB     91       SAPS     P        PL        1.50000       30.9740           0
     10400 MEMB     91       SAPS     O13      O2L     -0.780000       15.9994           0
     10401 MEMB     91       SAPS     O14      O2L     -0.780000       15.9994           0
     10402 MEMB     91       SAPS     O12      OSLP    -0.570000       15.9994           0
     10403 MEMB     91       SAPS     O11      OSLP    -0.570000       15.9994           0
     10404 MEMB     91       SAPS     C1       CTL2    -0.800000E-01   12.0110           0
     10405 MEMB     91       SAPS     HA       HAL2     0.900000E-01   1.00800           0
     10406 MEMB     91       SAPS     HB       HAL2     0.900000E-01   1.00800           0
     10407 MEMB     91       SAPS     C2       CTL1     0.170000       12.0110           0
     10408 MEMB     91       SAPS     HS       HAL1     0.900000E-01   1.00800           0
     10409 MEMB     91       SAPS     O21      OSL     -0.490000       15.9994           0
     10410 MEMB     91       SAPS     C21      CL       0.900000       12.0110           0
     10411 MEMB     91       SAPS     O22      OBL     -0.630000       15.9994           0
     10412 MEMB     91       SAPS     C22      CTL2    -0.220000       12.0110           0
     10413 MEMB     91       SAPS     H2R      HAL2     0.900000E-01   1.00800           0
     10414 MEMB     91       SAPS     H2S      HAL2     0.900000E-01   1.00800           0
     10415 MEMB     91       SAPS     C3       CTL2     0.800000E-01   12.0110           0
     10416 MEMB     91       SAPS     HX       HAL2     0.900000E-01   1.00800           0
     10417 MEMB     91       SAPS     HY       HAL2     0.900000E-01   1.00800           0
     10418 MEMB     91       SAPS     O31      OSL     -0.490000       15.9994           0
     10419 MEMB     91       SAPS     C31      CL       0.900000       12.0110           0
     10420 MEMB     91       SAPS     O32      OBL     -0.630000       15.9994           0
     10421 MEMB     91       SAPS     C32      CTL2    -0.220000       12.0110           0
     10422 MEMB     91       SAPS     H2X      HAL2     0.900000E-01   1.00800           0
     10423 MEMB     91       SAPS     H2Y      HAL2     0.900000E-01   1.00800           0
     10424 MEMB     91       SAPS     C23      CTL2    -0.180000       12.0110           0
     10425 MEMB     91       SAPS     H3R      HAL2     0.900000E-01   1.00800           0
     10426 MEMB     91       SAPS     H3S      HAL2     0.900000E-01   1.00800           0
     10427 MEMB     91       SAPS     C24      CTL2    -0.180000       12.0110           0
     10428 MEMB     91       SAPS     H4R      HAL2     0.900000E-01   1.00800           0
     10429 MEMB     91       SAPS     H4S      HAL2     0.900000E-01   1.00800           0
     10430 MEMB     91       SAPS     C25      CEL1    -0.150000       12.0110           0
     10431 MEMB     91       SAPS     H5R      HEL1     0.150000       1.00800           0
     10432 MEMB     91       SAPS     C26      CEL1    -0.150000       12.0110           0
     10433 MEMB     91       SAPS     H6R      HEL1     0.150000       1.00800           0
     10434 MEMB     91       SAPS     C27      CTL2    -0.180000       12.0110           0
     10435 MEMB     91       SAPS     H7R      HAL2     0.900000E-01   1.00800           0
     10436 MEMB     91       SAPS     H7S      HAL2     0.900000E-01   1.00800           0
     10437 MEMB     91       SAPS     C28      CEL1    -0.150000       12.0110           0
     10438 MEMB     91       SAPS     H8R      HEL1     0.150000       1.00800           0
     10439 MEMB     91       SAPS     C29      CEL1    -0.150000       12.0110           0
     10440 MEMB     91       SAPS     H9R      HEL1     0.150000       1.00800           0
     10441 MEMB     91       SAPS     C210     CTL2    -0.180000       12.0110           0
     10442 MEMB     91       SAPS     H10R     HAL2     0.900000E-01   1.00800           0
     10443 MEMB     91       SAPS     H10S     HAL2     0.900000E-01   1.00800           0
     10444 MEMB     91       SAPS     C211     CEL1    -0.150000       12.0110           0
     10445 MEMB     91       SAPS     H11R     HEL1     0.150000       1.00800           0
     10446 MEMB     91       SAPS     C212     CEL1    -0.150000       12.0110           0
     10447 MEMB     91       SAPS     H12R     HEL1     0.150000       1.00800           0
     10448 MEMB     91       SAPS     C213     CTL2    -0.180000       12.0110           0
     10449 MEMB     91       SAPS     H13R     HAL2     0.900000E-01   1.00800           0
     10450 MEMB     91       SAPS     H13S     HAL2     0.900000E-01   1.00800           0
     10451 MEMB     91       SAPS     C214     CEL1    -0.150000       12.0110           0
     10452 MEMB     91       SAPS     H14R     HEL1     0.150000       1.00800           0
     10453 MEMB     91       SAPS     C215     CEL1    -0.150000       12.0110           0
     10454 MEMB     91       SAPS     H15R     HEL1     0.150000       1.00800           0
     10455 MEMB     91       SAPS     C216     CTL2    -0.180000       12.0110           0
     10456 MEMB     91       SAPS     H16R     HAL2     0.900000E-01   1.00800           0
     10457 MEMB     91       SAPS     H16S     HAL2     0.900000E-01   1.00800           0
     10458 MEMB     91       SAPS     C217     CTL2    -0.180000       12.0110           0
     10459 MEMB     91       SAPS     H17R     HAL2     0.900000E-01   1.00800           0
     10460 MEMB     91       SAPS     H17S     HAL2     0.900000E-01   1.00800           0
     10461 MEMB     91       SAPS     C218     CTL2    -0.180000       12.0110           0
     10462 MEMB     91       SAPS     H18R     HAL2     0.900000E-01   1.00800           0
     10463 MEMB     91       SAPS     H18S     HAL2     0.900000E-01   1.00800           0
     10464 MEMB     91       SAPS     C219     CTL2    -0.180000       12.0110           0
     10465 MEMB     91       SAPS     H19R     HAL2     0.900000E-01   1.00800           0
     10466 MEMB     91       SAPS     H19S     HAL2     0.900000E-01   1.00800           0
     10467 MEMB     91       SAPS     C220     CTL3    -0.270000       12.0110           0
     10468 MEMB     91       SAPS     H20R     HAL3     0.900000E-01   1.00800           0
     10469 MEMB     91       SAPS     H20S     HAL3     0.900000E-01   1.00800           0
     10470 MEMB     91       SAPS     H20T     HAL3     0.900000E-01   1.00800           0
     10471 MEMB     91       SAPS     C33      CTL2    -0.180000       12.0110           0
     10472 MEMB     91       SAPS     H3X      HAL2     0.900000E-01   1.00800           0
     10473 MEMB     91       SAPS     H3Y      HAL2     0.900000E-01   1.00800           0
     10474 MEMB     91       SAPS     C34      CTL2    -0.180000       12.0110           0
     10475 MEMB     91       SAPS     H4X      HAL2     0.900000E-01   1.00800           0
     10476 MEMB     91       SAPS     H4Y      HAL2     0.900000E-01   1.00800           0
     10477 MEMB     91       SAPS     C35      CTL2    -0.180000       12.0110           0
     10478 MEMB     91       SAPS     H5X      HAL2     0.900000E-01   1.00800           0
     10479 MEMB     91       SAPS     H5Y      HAL2     0.900000E-01   1.00800           0
     10480 MEMB     91       SAPS     C36      CTL2    -0.180000       12.0110           0
     10481 MEMB     91       SAPS     H6X      HAL2     0.900000E-01   1.00800           0
     10482 MEMB     91       SAPS     H6Y      HAL2     0.900000E-01   1.00800           0
     10483 MEMB     91       SAPS     C37      CTL2    -0.180000       12.0110           0
     10484 MEMB     91       SAPS     H7X      HAL2     0.900000E-01   1.00800           0
     10485 MEMB     91       SAPS     H7Y      HAL2     0.900000E-01   1.00800           0
     10486 MEMB     91       SAPS     C38      CTL2    -0.180000       12.0110           0
     10487 MEMB     91       SAPS     H8X      HAL2     0.900000E-01   1.00800           0
     10488 MEMB     91       SAPS     H8Y      HAL2     0.900000E-01   1.00800           0
     10489 MEMB     91       SAPS     C39      CTL2    -0.180000       12.0110           0
     10490 MEMB     91       SAPS     H9X      HAL2     0.900000E-01   1.00800           0
     10491 MEMB     91       SAPS     H9Y      HAL2     0.900000E-01   1.00800           0
     10492 MEMB     91       SAPS     C310     CTL2    -0.180000       12.0110           0
     10493 MEMB     91       SAPS     H10X     HAL2     0.900000E-01   1.00800           0
     10494 MEMB     91       SAPS     H10Y     HAL2     0.900000E-01   1.00800           0
     10495 MEMB     91       SAPS     C311     CTL2    -0.180000       12.0110           0
     10496 MEMB     91       SAPS     H11X     HAL2     0.900000E-01   1.00800           0
     10497 MEMB     91       SAPS     H11Y     HAL2     0.900000E-01   1.00800           0
     10498 MEMB     91       SAPS     C312     CTL2    -0.180000       12.0110           0
     10499 MEMB     91       SAPS     H12X     HAL2     0.900000E-01   1.00800           0
     10500 MEMB     91       SAPS     H12Y     HAL2     0.900000E-01   1.00800           0
     10501 MEMB     91       SAPS     C313     CTL2    -0.180000       12.0110           0
     10502 MEMB     91       SAPS     H13X     HAL2     0.900000E-01   1.00800           0
     10503 MEMB     91       SAPS     H13Y     HAL2     0.900000E-01   1.00800           0
     10504 MEMB     91       SAPS     C314     CTL2    -0.180000       12.0110           0
     10505 MEMB     91       SAPS     H14X     HAL2     0.900000E-01   1.00800           0
     10506 MEMB     91       SAPS     H14Y     HAL2     0.900000E-01   1.00800           0
     10507 MEMB     91       SAPS     C315     CTL2    -0.180000       12.0110           0
     10508 MEMB     91       SAPS     H15X     HAL2     0.900000E-01   1.00800           0
     10509 MEMB     91       SAPS     H15Y     HAL2     0.900000E-01   1.00800           0
     10510 MEMB     91       SAPS     C316     CTL2    -0.180000       12.0110           0
     10511 MEMB     91       SAPS     H16X     HAL2     0.900000E-01   1.00800           0
     10512 MEMB     91       SAPS     H16Y     HAL2     0.900000E-01   1.00800           0
     10513 MEMB     91       SAPS     C317     CTL2    -0.180000       12.0110           0
     10514 MEMB     91       SAPS     H17X     HAL2     0.900000E-01   1.00800           0
     10515 MEMB     91       SAPS     H17Y     HAL2     0.900000E-01   1.00800           0
     10516 MEMB     91       SAPS     C318     CTL3    -0.270000       12.0110           0
     10517 MEMB     91       SAPS     H18X     HAL3     0.900000E-01   1.00800           0
     10518 MEMB     91       SAPS     H18Y     HAL3     0.900000E-01   1.00800           0
     10519 MEMB     91       SAPS     H18Z     HAL3     0.900000E-01   1.00800           0
     10520 MEMB     92       CHL1     C3       CRL1     0.140000       12.0110           0
     10521 MEMB     92       CHL1     H3       HGA1     0.900000E-01   1.00800           0
     10522 MEMB     92       CHL1     O3       OHL     -0.660000       15.9994           0
     10523 MEMB     92       CHL1     H3'      HOL      0.430000       1.00800           0
     10524 MEMB     92       CHL1     C4       CRL2    -0.180000       12.0110           0
     10525 MEMB     92       CHL1     H4A      HGA2     0.900000E-01   1.00800           0
     10526 MEMB     92       CHL1     H4B      HGA2     0.900000E-01   1.00800           0
     10527 MEMB     92       CHL1     C5       CEL1      0.00000       12.0110           0
     10528 MEMB     92       CHL1     C6       CEL1    -0.150000       12.0110           0
     10529 MEMB     92       CHL1     H6       HEL1     0.150000       1.00800           0
     10530 MEMB     92       CHL1     C7       CRL2    -0.180000       12.0110           0
     10531 MEMB     92       CHL1     H7A      HGA2     0.900000E-01   1.00800           0
     10532 MEMB     92       CHL1     H7B      HGA2     0.900000E-01   1.00800           0
     10533 MEMB     92       CHL1     C8       CRL1    -0.900000E-01   12.0110           0
     10534 MEMB     92       CHL1     H8       HGA1     0.900000E-01   1.00800           0
     10535 MEMB     92       CHL1     C14      CRL1    -0.900000E-01   12.0110           0
     10536 MEMB     92       CHL1     H14      HGA1     0.900000E-01   1.00800           0
     10537 MEMB     92       CHL1     C15      CRL2    -0.180000       12.0110           0
     10538 MEMB     92       CHL1     H15A     HGA2     0.900000E-01   1.00800           0
     10539 MEMB     92       CHL1     H15B     HGA2     0.900000E-01   1.00800           0
     10540 MEMB     92       CHL1     C16      CRL2    -0.180000       12.0110           0
     10541 MEMB     92       CHL1     H16A     HGA2     0.900000E-01   1.00800           0
     10542 MEMB     92       CHL1     H16B     HGA2     0.900000E-01   1.00800           0
     10543 MEMB     92       CHL1     C17      CRL1    -0.900000E-01   12.0110           0
     10544 MEMB     92       CHL1     H17      HGA1     0.900000E-01   1.00800           0
     10545 MEMB     92       CHL1     C13      CRL1      0.00000       12.0110           0
     10546 MEMB     92       CHL1     C18      CTL3    -0.270000       12.0110           0
     10547 MEMB     92       CHL1     H18A     HAL3     0.900000E-01   1.00800           0
     10548 MEMB     92       CHL1     H18B     HAL3     0.900000E-01   1.00800           0
     10549 MEMB     92       CHL1     H18C     HAL3     0.900000E-01   1.00800           0
     10550 MEMB     92       CHL1     C12      CRL2    -0.180000       12.0110           0
     10551 MEMB     92       CHL1     H12A     HGA2     0.900000E-01   1.00800           0
     10552 MEMB     92       CHL1     H12B     HGA2     0.900000E-01   1.00800           0
     10553 MEMB     92       CHL1     C11      CRL2    -0.180000       12.0110           0
     10554 MEMB     92       CHL1     H11A     HGA2     0.900000E-01   1.00800           0
     10555 MEMB     92       CHL1     H11B     HGA2     0.900000E-01   1.00800           0
     10556 MEMB     92       CHL1     C9       CRL1    -0.900000E-01   12.0110           0
     10557 MEMB     92       CHL1     H9       HGA1     0.900000E-01   1.00800           0
     10558 MEMB     92       CHL1     C10      CRL1      0.00000       12.0110           0
     10559 MEMB     92       CHL1     C19      CTL3    -0.270000       12.0110           0
     10560 MEMB     92       CHL1     H19A     HAL3     0.900000E-01   1.00800           0
     10561 MEMB     92       CHL1     H19B     HAL3     0.900000E-01   1.00800           0
     10562 MEMB     92       CHL1     H19C     HAL3     0.900000E-01   1.00800           0
     10563 MEMB     92       CHL1     C1       CRL2    -0.180000       12.0110           0
     10564 MEMB     92       CHL1     H1A      HGA2     0.900000E-01   1.00800           0
     10565 MEMB     92       CHL1     H1B      HGA2     0.900000E-01   1.00800           0
     10566 MEMB     92       CHL1     C2       CRL2    -0.180000       12.0110           0
     10567 MEMB     92       CHL1     H2A      HGA2     0.900000E-01   1.00800           0
     10568 MEMB     92       CHL1     H2B      HGA2     0.900000E-01   1.00800           0
     10569 MEMB     92       CHL1     C20      CTL1    -0.900000E-01   12.0110           0
     10570 MEMB     92       CHL1     H20      HAL1     0.900000E-01   1.00800           0
     10571 MEMB     92       CHL1     C21      CTL3    -0.270000       12.0110           0
     10572 MEMB     92       CHL1     H21A     HAL3     0.900000E-01   1.00800           0
     10573 MEMB     92       CHL1     H21B     HAL3     0.900000E-01   1.00800           0
     10574 MEMB     92       CHL1     H21C     HAL3     0.900000E-01   1.00800           0
     10575 MEMB     92       CHL1     C22      CTL2    -0.180000       12.0110           0
     10576 MEMB     92       CHL1     H22A     HAL2     0.900000E-01   1.00800           0
     10577 MEMB     92       CHL1     H22B     HAL2     0.900000E-01   1.00800           0
     10578 MEMB     92       CHL1     C23      CTL2    -0.180000       12.0110           0
     10579 MEMB     92       CHL1     H23A     HAL2     0.900000E-01   1.00800           0
     10580 MEMB     92       CHL1     H23B     HAL2     0.900000E-01   1.00800           0
     10581 MEMB     92       CHL1     C24      CTL2    -0.180000       12.0110           0
     10582 MEMB     92       CHL1     H24A     HAL2     0.900000E-01   1.00800           0
     10583 MEMB     92       CHL1     H24B     HAL2     0.900000E-01   1.00800           0
     10584 MEMB     92       CHL1     C25      CTL1    -0.900000E-01   12.0110           0
     10585 MEMB     92       CHL1     H25      HAL1     0.900000E-01   1.00800           0
     10586 MEMB     92       CHL1     C26      CTL3    -0.270000       12.0110           0
     10587 MEMB     92       CHL1     H26A     HAL3     0.900000E-01   1.00800           0
     10588 MEMB     92       CHL1     H26B     HAL3     0.900000E-01   1.00800           0
     10589 MEMB     92       CHL1     H26C     HAL3     0.900000E-01   1.00800           0
     10590 MEMB     92       CHL1     C27      CTL3    -0.270000       12.0110           0
     10591 MEMB     92       CHL1     H27A     HAL3     0.900000E-01   1.00800           0
     10592 MEMB     92       CHL1     H27B     HAL3     0.900000E-01   1.00800           0
     10593 MEMB     92       CHL1     H27C     HAL3     0.900000E-01   1.00800           0
     10594 MEMB     93       SAPE     N        NH3L    -0.300000       14.0070           0
     10595 MEMB     93       SAPE     HN1      HCL      0.330000       1.00800           0
     10596 MEMB     93       SAPE     HN2      HCL      0.330000       1.00800           0
     10597 MEMB     93       SAPE     HN3      HCL      0.330000       1.00800           0
     10598 MEMB     93       SAPE     C12      CTL2     0.130000       12.0110           0
     10599 MEMB     93       SAPE     H12A     HAL2     0.900000E-01   1.00800           0
     10600 MEMB     93       SAPE     H12B     HAL2     0.900000E-01   1.00800           0
     10601 MEMB     93       SAPE     C11      CTL2    -0.800000E-01   12.0110           0
     10602 MEMB     93       SAPE     H11A     HAL2     0.900000E-01   1.00800           0
     10603 MEMB     93       SAPE     H11B     HAL2     0.900000E-01   1.00800           0
     10604 MEMB     93       SAPE     P        PL        1.50000       30.9740           0
     10605 MEMB     93       SAPE     O13      O2L     -0.780000       15.9994           0
     10606 MEMB     93       SAPE     O14      O2L     -0.780000       15.9994           0
     10607 MEMB     93       SAPE     O12      OSLP    -0.570000       15.9994           0
     10608 MEMB     93       SAPE     O11      OSLP    -0.570000       15.9994           0
     10609 MEMB     93       SAPE     C1       CTL2    -0.800000E-01   12.0110           0
     10610 MEMB     93       SAPE     HA       HAL2     0.900000E-01   1.00800           0
     10611 MEMB     93       SAPE     HB       HAL2     0.900000E-01   1.00800           0
     10612 MEMB     93       SAPE     C2       CTL1     0.170000       12.0110           0
     10613 MEMB     93       SAPE     HS       HAL1     0.900000E-01   1.00800           0
     10614 MEMB     93       SAPE     O21      OSL     -0.490000       15.9994           0
     10615 MEMB     93       SAPE     C21      CL       0.900000       12.0110           0
     10616 MEMB     93       SAPE     O22      OBL     -0.630000       15.9994           0
     10617 MEMB     93       SAPE     C22      CTL2    -0.220000       12.0110           0
     10618 MEMB     93       SAPE     H2R      HAL2     0.900000E-01   1.00800           0
     10619 MEMB     93       SAPE     H2S      HAL2     0.900000E-01   1.00800           0
     10620 MEMB     93       SAPE     C3       CTL2     0.800000E-01   12.0110           0
     10621 MEMB     93       SAPE     HX       HAL2     0.900000E-01   1.00800           0
     10622 MEMB     93       SAPE     HY       HAL2     0.900000E-01   1.00800           0
     10623 MEMB     93       SAPE     O31      OSL     -0.490000       15.9994           0
     10624 MEMB     93       SAPE     C31      CL       0.900000       12.0110           0
     10625 MEMB     93       SAPE     O32      OBL     -0.630000       15.9994           0
     10626 MEMB     93       SAPE     C32      CTL2    -0.220000       12.0110           0
     10627 MEMB     93       SAPE     H2X      HAL2     0.900000E-01   1.00800           0
     10628 MEMB     93       SAPE     H2Y      HAL2     0.900000E-01   1.00800           0
     10629 MEMB     93       SAPE     C23      CTL2    -0.180000       12.0110           0
     10630 MEMB     93       SAPE     H3R      HAL2     0.900000E-01   1.00800           0
     10631 MEMB     93       SAPE     H3S      HAL2     0.900000E-01   1.00800           0
     10632 MEMB     93       SAPE     C24      CTL2    -0.180000       12.0110           0
     10633 MEMB     93       SAPE     H4R      HAL2     0.900000E-01   1.00800           0
     10634 MEMB     93       SAPE     H4S      HAL2     0.900000E-01   1.00800           0
     10635 MEMB     93       SAPE     C25      CEL1    -0.150000       12.0110           0
     10636 MEMB     93       SAPE     H5R      HEL1     0.150000       1.00800           0
     10637 MEMB     93       SAPE     C26      CEL1    -0.150000       12.0110           0
     10638 MEMB     93       SAPE     H6R      HEL1     0.150000       1.00800           0
     10639 MEMB     93       SAPE     C27      CTL2    -0.180000       12.0110           0
     10640 MEMB     93       SAPE     H7R      HAL2     0.900000E-01   1.00800           0
     10641 MEMB     93       SAPE     H7S      HAL2     0.900000E-01   1.00800           0
     10642 MEMB     93       SAPE     C28      CEL1    -0.150000       12.0110           0
     10643 MEMB     93       SAPE     H8R      HEL1     0.150000       1.00800           0
     10644 MEMB     93       SAPE     C29      CEL1    -0.150000       12.0110           0
     10645 MEMB     93       SAPE     H9R      HEL1     0.150000       1.00800           0
     10646 MEMB     93       SAPE     C210     CTL2    -0.180000       12.0110           0
     10647 MEMB     93       SAPE     H10R     HAL2     0.900000E-01   1.00800           0
     10648 MEMB     93       SAPE     H10S     HAL2     0.900000E-01   1.00800           0
     10649 MEMB     93       SAPE     C211     CEL1    -0.150000       12.0110           0
     10650 MEMB     93       SAPE     H11R     HEL1     0.150000       1.00800           0
     10651 MEMB     93       SAPE     C212     CEL1    -0.150000       12.0110           0
     10652 MEMB     93       SAPE     H12R     HEL1     0.150000       1.00800           0
     10653 MEMB     93       SAPE     C213     CTL2    -0.180000       12.0110           0
     10654 MEMB     93       SAPE     H13R     HAL2     0.900000E-01   1.00800           0
     10655 MEMB     93       SAPE     H13S     HAL2     0.900000E-01   1.00800           0
     10656 MEMB     93       SAPE     C214     CEL1    -0.150000       12.0110           0
     10657 MEMB     93       SAPE     H14R     HEL1     0.150000       1.00800           0
     10658 MEMB     93       SAPE     C215     CEL1    -0.150000       12.0110           0
     10659 MEMB     93       SAPE     H15R     HEL1     0.150000       1.00800           0
     10660 MEMB     93       SAPE     C216     CTL2    -0.180000       12.0110           0
     10661 MEMB     93       SAPE     H16R     HAL2     0.900000E-01   1.00800           0
     10662 MEMB     93       SAPE     H16S     HAL2     0.900000E-01   1.00800           0
     10663 MEMB     93       SAPE     C217     CTL2    -0.180000       12.0110           0
     10664 MEMB     93       SAPE     H17R     HAL2     0.900000E-01   1.00800           0
     10665 MEMB     93       SAPE     H17S     HAL2     0.900000E-01   1.00800           0
     10666 MEMB     93       SAPE     C218     CTL2    -0.180000       12.0110           0
     10667 MEMB     93       SAPE     H18R     HAL2     0.900000E-01   1.00800           0
     10668 MEMB     93       SAPE     H18S     HAL2     0.900000E-01   1.00800           0
     10669 MEMB     93       SAPE     C219     CTL2    -0.180000       12.0110           0
     10670 MEMB     93       SAPE     H19R     HAL2     0.900000E-01   1.00800           0
     10671 MEMB     93       SAPE     H19S     HAL2     0.900000E-01   1.00800           0
     10672 MEMB     93       SAPE     C220     CTL3    -0.270000       12.0110           0
     10673 MEMB     93       SAPE     H20R     HAL3     0.900000E-01   1.00800           0
     10674 MEMB     93       SAPE     H20S     HAL3     0.900000E-01   1.00800           0
     10675 MEMB     93       SAPE     H20T     HAL3     0.900000E-01   1.00800           0
     10676 MEMB     93       SAPE     C33      CTL2    -0.180000       12.0110           0
     10677 MEMB     93       SAPE     H3X      HAL2     0.900000E-01   1.00800           0
     10678 MEMB     93       SAPE     H3Y      HAL2     0.900000E-01   1.00800           0
     10679 MEMB     93       SAPE     C34      CTL2    -0.180000       12.0110           0
     10680 MEMB     93       SAPE     H4X      HAL2     0.900000E-01   1.00800           0
     10681 MEMB     93       SAPE     H4Y      HAL2     0.900000E-01   1.00800           0
     10682 MEMB     93       SAPE     C35      CTL2    -0.180000       12.0110           0
     10683 MEMB     93       SAPE     H5X      HAL2     0.900000E-01   1.00800           0
     10684 MEMB     93       SAPE     H5Y      HAL2     0.900000E-01   1.00800           0
     10685 MEMB     93       SAPE     C36      CTL2    -0.180000       12.0110           0
     10686 MEMB     93       SAPE     H6X      HAL2     0.900000E-01   1.00800           0
     10687 MEMB     93       SAPE     H6Y      HAL2     0.900000E-01   1.00800           0
     10688 MEMB     93       SAPE     C37      CTL2    -0.180000       12.0110           0
     10689 MEMB     93       SAPE     H7X      HAL2     0.900000E-01   1.00800           0
     10690 MEMB     93       SAPE     H7Y      HAL2     0.900000E-01   1.00800           0
     10691 MEMB     93       SAPE     C38      CTL2    -0.180000       12.0110           0
     10692 MEMB     93       SAPE     H8X      HAL2     0.900000E-01   1.00800           0
     10693 MEMB     93       SAPE     H8Y      HAL2     0.900000E-01   1.00800           0
     10694 MEMB     93       SAPE     C39      CTL2    -0.180000       12.0110           0
     10695 MEMB     93       SAPE     H9X      HAL2     0.900000E-01   1.00800           0
     10696 MEMB     93       SAPE     H9Y      HAL2     0.900000E-01   1.00800           0
     10697 MEMB     93       SAPE     C310     CTL2    -0.180000       12.0110           0
     10698 MEMB     93       SAPE     H10X     HAL2     0.900000E-01   1.00800           0
     10699 MEMB     93       SAPE     H10Y     HAL2     0.900000E-01   1.00800           0
     10700 MEMB     93       SAPE     C311     CTL2    -0.180000       12.0110           0
     10701 MEMB     93       SAPE     H11X     HAL2     0.900000E-01   1.00800           0
     10702 MEMB     93       SAPE     H11Y     HAL2     0.900000E-01   1.00800           0
     10703 MEMB     93       SAPE     C312     CTL2    -0.180000       12.0110           0
     10704 MEMB     93       SAPE     H12X     HAL2     0.900000E-01   1.00800           0
     10705 MEMB     93       SAPE     H12Y     HAL2     0.900000E-01   1.00800           0
     10706 MEMB     93       SAPE     C313     CTL2    -0.180000       12.0110           0
     10707 MEMB     93       SAPE     H13X     HAL2     0.900000E-01   1.00800           0
     10708 MEMB     93       SAPE     H13Y     HAL2     0.900000E-01   1.00800           0
     10709 MEMB     93       SAPE     C314     CTL2    -0.180000       12.0110           0
     10710 MEMB     93       SAPE     H14X     HAL2     0.900000E-01   1.00800           0
     10711 MEMB     93       SAPE     H14Y     HAL2     0.900000E-01   1.00800           0
     10712 MEMB     93       SAPE     C315     CTL2    -0.180000       12.0110           0
     10713 MEMB     93       SAPE     H15X     HAL2     0.900000E-01   1.00800           0
     10714 MEMB     93       SAPE     H15Y     HAL2     0.900000E-01   1.00800           0
     10715 MEMB     93       SAPE     C316     CTL2    -0.180000       12.0110           0
     10716 MEMB     93       SAPE     H16X     HAL2     0.900000E-01   1.00800           0
     10717 MEMB     93       SAPE     H16Y     HAL2     0.900000E-01   1.00800           0
     10718 MEMB     93       SAPE     C317     CTL2    -0.180000       12.0110           0
     10719 MEMB     93       SAPE     H17X     HAL2     0.900000E-01   1.00800           0
     10720 MEMB     93       SAPE     H17Y     HAL2     0.900000E-01   1.00800           0
     10721 MEMB     93       SAPE     C318     CTL3    -0.270000       12.0110           0
     10722 MEMB     93       SAPE     H18X     HAL3     0.900000E-01   1.00800           0
     10723 MEMB     93       SAPE     H18Y     HAL3     0.900000E-01   1.00800           0
     10724 MEMB     93       SAPE     H18Z     HAL3     0.900000E-01   1.00800           0
     10725 MEMB     94       SAPS     N        NH3L    -0.300000       14.0070           0
     10726 MEMB     94       SAPS     HN1      HCL      0.330000       1.00800           0
     10727 MEMB     94       SAPS     HN2      HCL      0.330000       1.00800           0
     10728 MEMB     94       SAPS     HN3      HCL      0.330000       1.00800           0
     10729 MEMB     94       SAPS     C12      CTL1     0.210000       12.0110           0
     10730 MEMB     94       SAPS     H12A     HBL      0.100000       1.00800           0
     10731 MEMB     94       SAPS     C13      CCL      0.340000       12.0110           0
     10732 MEMB     94       SAPS     O13A     OCL     -0.670000       15.9994           0
     10733 MEMB     94       SAPS     O13B     OCL     -0.670000       15.9994           0
     10734 MEMB     94       SAPS     C11      CTL2    -0.800000E-01   12.0110           0
     10735 MEMB     94       SAPS     H11A     HAL2     0.900000E-01   1.00800           0
     10736 MEMB     94       SAPS     H11B     HAL2     0.900000E-01   1.00800           0
     10737 MEMB     94       SAPS     P        PL        1.50000       30.9740           0
     10738 MEMB     94       SAPS     O13      O2L     -0.780000       15.9994           0
     10739 MEMB     94       SAPS     O14      O2L     -0.780000       15.9994           0
     10740 MEMB     94       SAPS     O12      OSLP    -0.570000       15.9994           0
     10741 MEMB     94       SAPS     O11      OSLP    -0.570000       15.9994           0
     10742 MEMB     94       SAPS     C1       CTL2    -0.800000E-01   12.0110           0
     10743 MEMB     94       SAPS     HA       HAL2     0.900000E-01   1.00800           0
     10744 MEMB     94       SAPS     HB       HAL2     0.900000E-01   1.00800           0
     10745 MEMB     94       SAPS     C2       CTL1     0.170000       12.0110           0
     10746 MEMB     94       SAPS     HS       HAL1     0.900000E-01   1.00800           0
     10747 MEMB     94       SAPS     O21      OSL     -0.490000       15.9994           0
     10748 MEMB     94       SAPS     C21      CL       0.900000       12.0110           0
     10749 MEMB     94       SAPS     O22      OBL     -0.630000       15.9994           0
     10750 MEMB     94       SAPS     C22      CTL2    -0.220000       12.0110           0
     10751 MEMB     94       SAPS     H2R      HAL2     0.900000E-01   1.00800           0
     10752 MEMB     94       SAPS     H2S      HAL2     0.900000E-01   1.00800           0
     10753 MEMB     94       SAPS     C3       CTL2     0.800000E-01   12.0110           0
     10754 MEMB     94       SAPS     HX       HAL2     0.900000E-01   1.00800           0
     10755 MEMB     94       SAPS     HY       HAL2     0.900000E-01   1.00800           0
     10756 MEMB     94       SAPS     O31      OSL     -0.490000       15.9994           0
     10757 MEMB     94       SAPS     C31      CL       0.900000       12.0110           0
     10758 MEMB     94       SAPS     O32      OBL     -0.630000       15.9994           0
     10759 MEMB     94       SAPS     C32      CTL2    -0.220000       12.0110           0
     10760 MEMB     94       SAPS     H2X      HAL2     0.900000E-01   1.00800           0
     10761 MEMB     94       SAPS     H2Y      HAL2     0.900000E-01   1.00800           0
     10762 MEMB     94       SAPS     C23      CTL2    -0.180000       12.0110           0
     10763 MEMB     94       SAPS     H3R      HAL2     0.900000E-01   1.00800           0
     10764 MEMB     94       SAPS     H3S      HAL2     0.900000E-01   1.00800           0
     10765 MEMB     94       SAPS     C24      CTL2    -0.180000       12.0110           0
     10766 MEMB     94       SAPS     H4R      HAL2     0.900000E-01   1.00800           0
     10767 MEMB     94       SAPS     H4S      HAL2     0.900000E-01   1.00800           0
     10768 MEMB     94       SAPS     C25      CEL1    -0.150000       12.0110           0
     10769 MEMB     94       SAPS     H5R      HEL1     0.150000       1.00800           0
     10770 MEMB     94       SAPS     C26      CEL1    -0.150000       12.0110           0
     10771 MEMB     94       SAPS     H6R      HEL1     0.150000       1.00800           0
     10772 MEMB     94       SAPS     C27      CTL2    -0.180000       12.0110           0
     10773 MEMB     94       SAPS     H7R      HAL2     0.900000E-01   1.00800           0
     10774 MEMB     94       SAPS     H7S      HAL2     0.900000E-01   1.00800           0
     10775 MEMB     94       SAPS     C28      CEL1    -0.150000       12.0110           0
     10776 MEMB     94       SAPS     H8R      HEL1     0.150000       1.00800           0
     10777 MEMB     94       SAPS     C29      CEL1    -0.150000       12.0110           0
     10778 MEMB     94       SAPS     H9R      HEL1     0.150000       1.00800           0
     10779 MEMB     94       SAPS     C210     CTL2    -0.180000       12.0110           0
     10780 MEMB     94       SAPS     H10R     HAL2     0.900000E-01   1.00800           0
     10781 MEMB     94       SAPS     H10S     HAL2     0.900000E-01   1.00800           0
     10782 MEMB     94       SAPS     C211     CEL1    -0.150000       12.0110           0
     10783 MEMB     94       SAPS     H11R     HEL1     0.150000       1.00800           0
     10784 MEMB     94       SAPS     C212     CEL1    -0.150000       12.0110           0
     10785 MEMB     94       SAPS     H12R     HEL1     0.150000       1.00800           0
     10786 MEMB     94       SAPS     C213     CTL2    -0.180000       12.0110           0
     10787 MEMB     94       SAPS     H13R     HAL2     0.900000E-01   1.00800           0
     10788 MEMB     94       SAPS     H13S     HAL2     0.900000E-01   1.00800           0
     10789 MEMB     94       SAPS     C214     CEL1    -0.150000       12.0110           0
     10790 MEMB     94       SAPS     H14R     HEL1     0.150000       1.00800           0
     10791 MEMB     94       SAPS     C215     CEL1    -0.150000       12.0110           0
     10792 MEMB     94       SAPS     H15R     HEL1     0.150000       1.00800           0
     10793 MEMB     94       SAPS     C216     CTL2    -0.180000       12.0110           0
     10794 MEMB     94       SAPS     H16R     HAL2     0.900000E-01   1.00800           0
     10795 MEMB     94       SAPS     H16S     HAL2     0.900000E-01   1.00800           0
     10796 MEMB     94       SAPS     C217     CTL2    -0.180000       12.0110           0
     10797 MEMB     94       SAPS     H17R     HAL2     0.900000E-01   1.00800           0
     10798 MEMB     94       SAPS     H17S     HAL2     0.900000E-01   1.00800           0
     10799 MEMB     94       SAPS     C218     CTL2    -0.180000       12.0110           0
     10800 MEMB     94       SAPS     H18R     HAL2     0.900000E-01   1.00800           0
     10801 MEMB     94       SAPS     H18S     HAL2     0.900000E-01   1.00800           0
     10802 MEMB     94       SAPS     C219     CTL2    -0.180000       12.0110           0
     10803 MEMB     94       SAPS     H19R     HAL2     0.900000E-01   1.00800           0
     10804 MEMB     94       SAPS     H19S     HAL2     0.900000E-01   1.00800           0
     10805 MEMB     94       SAPS     C220     CTL3    -0.270000       12.0110           0
     10806 MEMB     94       SAPS     H20R     HAL3     0.900000E-01   1.00800           0
     10807 MEMB     94       SAPS     H20S     HAL3     0.900000E-01   1.00800           0
     10808 MEMB     94       SAPS     H20T     HAL3     0.900000E-01   1.00800           0
     10809 MEMB     94       SAPS     C33      CTL2    -0.180000       12.0110           0
     10810 MEMB     94       SAPS     H3X      HAL2     0.900000E-01   1.00800           0
     10811 MEMB     94       SAPS     H3Y      HAL2     0.900000E-01   1.00800           0
     10812 MEMB     94       SAPS     C34      CTL2    -0.180000       12.0110           0
     10813 MEMB     94       SAPS     H4X      HAL2     0.900000E-01   1.00800           0
     10814 MEMB     94       SAPS     H4Y      HAL2     0.900000E-01   1.00800           0
     10815 MEMB     94       SAPS     C35      CTL2    -0.180000       12.0110           0
     10816 MEMB     94       SAPS     H5X      HAL2     0.900000E-01   1.00800           0
     10817 MEMB     94       SAPS     H5Y      HAL2     0.900000E-01   1.00800           0
     10818 MEMB     94       SAPS     C36      CTL2    -0.180000       12.0110           0
     10819 MEMB     94       SAPS     H6X      HAL2     0.900000E-01   1.00800           0
     10820 MEMB     94       SAPS     H6Y      HAL2     0.900000E-01   1.00800           0
     10821 MEMB     94       SAPS     C37      CTL2    -0.180000       12.0110           0
     10822 MEMB     94       SAPS     H7X      HAL2     0.900000E-01   1.00800           0
     10823 MEMB     94       SAPS     H7Y      HAL2     0.900000E-01   1.00800           0
     10824 MEMB     94       SAPS     C38      CTL2    -0.180000       12.0110           0
     10825 MEMB     94       SAPS     H8X      HAL2     0.900000E-01   1.00800           0
     10826 MEMB     94       SAPS     H8Y      HAL2     0.900000E-01   1.00800           0
     10827 MEMB     94       SAPS     C39      CTL2    -0.180000       12.0110           0
     10828 MEMB     94       SAPS     H9X      HAL2     0.900000E-01   1.00800           0
     10829 MEMB     94       SAPS     H9Y      HAL2     0.900000E-01   1.00800           0
     10830 MEMB     94       SAPS     C310     CTL2    -0.180000       12.0110           0
     10831 MEMB     94       SAPS     H10X     HAL2     0.900000E-01   1.00800           0
     10832 MEMB     94       SAPS     H10Y     HAL2     0.900000E-01   1.00800           0
     10833 MEMB     94       SAPS     C311     CTL2    -0.180000       12.0110           0
     10834 MEMB     94       SAPS     H11X     HAL2     0.900000E-01   1.00800           0
     10835 MEMB     94       SAPS     H11Y     HAL2     0.900000E-01   1.00800           0
     10836 MEMB     94       SAPS     C312     CTL2    -0.180000       12.0110           0
     10837 MEMB     94       SAPS     H12X     HAL2     0.900000E-01   1.00800           0
     10838 MEMB     94       SAPS     H12Y     HAL2     0.900000E-01   1.00800           0
     10839 MEMB     94       SAPS     C313     CTL2    -0.180000       12.0110           0
     10840 MEMB     94       SAPS     H13X     HAL2     0.900000E-01   1.00800           0
     10841 MEMB     94       SAPS     H13Y     HAL2     0.900000E-01   1.00800           0
     10842 MEMB     94       SAPS     C314     CTL2    -0.180000       12.0110           0
     10843 MEMB     94       SAPS     H14X     HAL2     0.900000E-01   1.00800           0
     10844 MEMB     94       SAPS     H14Y     HAL2     0.900000E-01   1.00800           0
     10845 MEMB     94       SAPS     C315     CTL2    -0.180000       12.0110           0
     10846 MEMB     94       SAPS     H15X     HAL2     0.900000E-01   1.00800           0
     10847 MEMB     94       SAPS     H15Y     HAL2     0.900000E-01   1.00800           0
     10848 MEMB     94       SAPS     C316     CTL2    -0.180000       12.0110           0
     10849 MEMB     94       SAPS     H16X     HAL2     0.900000E-01   1.00800           0
     10850 MEMB     94       SAPS     H16Y     HAL2     0.900000E-01   1.00800           0
     10851 MEMB     94       SAPS     C317     CTL2    -0.180000       12.0110           0
     10852 MEMB     94       SAPS     H17X     HAL2     0.900000E-01   1.00800           0
     10853 MEMB     94       SAPS     H17Y     HAL2     0.900000E-01   1.00800           0
     10854 MEMB     94       SAPS     C318     CTL3    -0.270000       12.0110           0
     10855 MEMB     94       SAPS     H18X     HAL3     0.900000E-01   1.00800           0
     10856 MEMB     94       SAPS     H18Y     HAL3     0.900000E-01   1.00800           0
     10857 MEMB     94       SAPS     H18Z     HAL3     0.900000E-01   1.00800           0
     10858 MEMB     95       OSM      N        NTL     -0.600000       14.0070           0
     10859 MEMB     95       OSM      C15      CTL5    -0.350000       12.0110           0
     10860 MEMB     95       OSM      H15A     HL       0.250000       1.00800           0
     10861 MEMB     95       OSM      H15B     HL       0.250000       1.00800           0
     10862 MEMB     95       OSM      H15C     HL       0.250000       1.00800           0
     10863 MEMB     95       OSM      C14      CTL5    -0.350000       12.0110           0
     10864 MEMB     95       OSM      H14A     HL       0.250000       1.00800           0
     10865 MEMB     95       OSM      H14B     HL       0.250000       1.00800           0
     10866 MEMB     95       OSM      H14C     HL       0.250000       1.00800           0
     10867 MEMB     95       OSM      C13      CTL5    -0.350000       12.0110           0
     10868 MEMB     95       OSM      H13A     HL       0.250000       1.00800           0
     10869 MEMB     95       OSM      H13B     HL       0.250000       1.00800           0
     10870 MEMB     95       OSM      H13C     HL       0.250000       1.00800           0
     10871 MEMB     95       OSM      C12      CTL2    -0.100000       12.0110           0
     10872 MEMB     95       OSM      H12A     HL       0.250000       1.00800           0
     10873 MEMB     95       OSM      H12B     HL       0.250000       1.00800           0
     10874 MEMB     95       OSM      C11      CTL2    -0.800000E-01   12.0110           0
     10875 MEMB     95       OSM      H11A     HAL2     0.900000E-01   1.00800           0
     10876 MEMB     95       OSM      H11B     HAL2     0.900000E-01   1.00800           0
     10877 MEMB     95       OSM      P        PL        1.50000       30.9740           0
     10878 MEMB     95       OSM      O13      O2L     -0.780000       15.9994           0
     10879 MEMB     95       OSM      O14      O2L     -0.780000       15.9994           0
     10880 MEMB     95       OSM      O11      OSLP    -0.570000       15.9994           0
     10881 MEMB     95       OSM      O12      OSLP    -0.570000       15.9994           0
     10882 MEMB     95       OSM      C1S      CTL2    -0.800000E-01   12.0110           0
     10883 MEMB     95       OSM      H1S      HAL2     0.900000E-01   1.00800           0
     10884 MEMB     95       OSM      H1T      HAL2     0.900000E-01   1.00800           0
     10885 MEMB     95       OSM      NF       NHL     -0.700000       14.0070           0
     10886 MEMB     95       OSM      HNF      H        0.350000       1.00800           0
     10887 MEMB     95       OSM      C2S      CTL1     0.300000       12.0110           0
     10888 MEMB     95       OSM      H2S      HAL1     0.500000E-01   1.00800           0
     10889 MEMB     95       OSM      C3S      CTO1     0.500000       12.0110           0
     10890 MEMB     95       OSM      H3S      HAL1    -0.110000       1.00800           0
     10891 MEMB     95       OSM      O3       OHL     -0.690000       15.9994           0
     10892 MEMB     95       OSM      HO3      HOL      0.300000       1.00800           0
     10893 MEMB     95       OSM      C4S      CEL3    -0.150000       12.0110           0
     10894 MEMB     95       OSM      H4S      HEL1     0.150000       1.00800           0
     10895 MEMB     95       OSM      C5S      CEL3    -0.150000       12.0110           0
     10896 MEMB     95       OSM      H5S      HEL1     0.150000       1.00800           0
     10897 MEMB     95       OSM      C6S      CTL2    -0.180000       12.0110           0
     10898 MEMB     95       OSM      H6S      HAL2     0.900000E-01   1.00800           0
     10899 MEMB     95       OSM      H6T      HAL2     0.900000E-01   1.00800           0
     10900 MEMB     95       OSM      C7S      CTL2    -0.180000       12.0110           0
     10901 MEMB     95       OSM      H7S      HAL2     0.900000E-01   1.00800           0
     10902 MEMB     95       OSM      H7T      HAL2     0.900000E-01   1.00800           0
     10903 MEMB     95       OSM      C8S      CTL2    -0.180000       12.0110           0
     10904 MEMB     95       OSM      H8S      HAL2     0.900000E-01   1.00800           0
     10905 MEMB     95       OSM      H8T      HAL2     0.900000E-01   1.00800           0
     10906 MEMB     95       OSM      C9S      CTL2    -0.180000       12.0110           0
     10907 MEMB     95       OSM      H9S      HAL2     0.900000E-01   1.00800           0
     10908 MEMB     95       OSM      H9T      HAL2     0.900000E-01   1.00800           0
     10909 MEMB     95       OSM      C10S     CTL2    -0.180000       12.0110           0
     10910 MEMB     95       OSM      H10S     HAL2     0.900000E-01   1.00800           0
     10911 MEMB     95       OSM      H10T     HAL2     0.900000E-01   1.00800           0
     10912 MEMB     95       OSM      C11S     CTL2    -0.180000       12.0110           0
     10913 MEMB     95       OSM      H11S     HAL2     0.900000E-01   1.00800           0
     10914 MEMB     95       OSM      H11T     HAL2     0.900000E-01   1.00800           0
     10915 MEMB     95       OSM      C12S     CTL2    -0.180000       12.0110           0
     10916 MEMB     95       OSM      H12S     HAL2     0.900000E-01   1.00800           0
     10917 MEMB     95       OSM      H12T     HAL2     0.900000E-01   1.00800           0
     10918 MEMB     95       OSM      C13S     CTL2    -0.180000       12.0110           0
     10919 MEMB     95       OSM      H13S     HAL2     0.900000E-01   1.00800           0
     10920 MEMB     95       OSM      H13T     HAL2     0.900000E-01   1.00800           0
     10921 MEMB     95       OSM      C14S     CTL2    -0.180000       12.0110           0
     10922 MEMB     95       OSM      H14S     HAL2     0.900000E-01   1.00800           0
     10923 MEMB     95       OSM      H14T     HAL2     0.900000E-01   1.00800           0
     10924 MEMB     95       OSM      C15S     CTL2    -0.180000       12.0110           0
     10925 MEMB     95       OSM      H15S     HAL2     0.900000E-01   1.00800           0
     10926 MEMB     95       OSM      H15T     HAL2     0.900000E-01   1.00800           0
     10927 MEMB     95       OSM      C16S     CTL2    -0.180000       12.0110           0
     10928 MEMB     95       OSM      H16S     HAL2     0.900000E-01   1.00800           0
     10929 MEMB     95       OSM      H16T     HAL2     0.900000E-01   1.00800           0
     10930 MEMB     95       OSM      C17S     CTL2    -0.180000       12.0110           0
     10931 MEMB     95       OSM      H17S     HAL2     0.900000E-01   1.00800           0
     10932 MEMB     95       OSM      H17T     HAL2     0.900000E-01   1.00800           0
     10933 MEMB     95       OSM      C18S     CTL3    -0.270000       12.0110           0
     10934 MEMB     95       OSM      H18S     HAL3     0.900000E-01   1.00800           0
     10935 MEMB     95       OSM      H18T     HAL3     0.900000E-01   1.00800           0
     10936 MEMB     95       OSM      H18U     HAL3     0.900000E-01   1.00800           0
     10937 MEMB     95       OSM      C1F      C        0.550000       12.0110           0
     10938 MEMB     95       OSM      OF       O       -0.600000       15.9994           0
     10939 MEMB     95       OSM      C2F      CTL2    -0.700000E-01   12.0110           0
     10940 MEMB     95       OSM      H2F      HAL2     0.600000E-01   1.00800           0
     10941 MEMB     95       OSM      H2G      HAL2     0.600000E-01   1.00800           0
     10942 MEMB     95       OSM      C3F      CTL2    -0.180000       12.0110           0
     10943 MEMB     95       OSM      H3F      HAL2     0.900000E-01   1.00800           0
     10944 MEMB     95       OSM      H3G      HAL2     0.900000E-01   1.00800           0
     10945 MEMB     95       OSM      C4F      CTL2    -0.180000       12.0110           0
     10946 MEMB     95       OSM      H4F      HAL2     0.900000E-01   1.00800           0
     10947 MEMB     95       OSM      H4G      HAL2     0.900000E-01   1.00800           0
     10948 MEMB     95       OSM      C5F      CTL2    -0.180000       12.0110           0
     10949 MEMB     95       OSM      H5F      HAL2     0.900000E-01   1.00800           0
     10950 MEMB     95       OSM      H5G      HAL2     0.900000E-01   1.00800           0
     10951 MEMB     95       OSM      C6F      CTL2    -0.180000       12.0110           0
     10952 MEMB     95       OSM      H6F      HAL2     0.900000E-01   1.00800           0
     10953 MEMB     95       OSM      H6G      HAL2     0.900000E-01   1.00800           0
     10954 MEMB     95       OSM      C7F      CTL2    -0.180000       12.0110           0
     10955 MEMB     95       OSM      H7F      HAL2     0.900000E-01   1.00800           0
     10956 MEMB     95       OSM      H7G      HAL2     0.900000E-01   1.00800           0
     10957 MEMB     95       OSM      C8F      CTL2    -0.180000       12.0110           0
     10958 MEMB     95       OSM      H8F      HAL2     0.900000E-01   1.00800           0
     10959 MEMB     95       OSM      H8G      HAL2     0.900000E-01   1.00800           0
     10960 MEMB     95       OSM      C9F      CEL1    -0.150000       12.0110           0
     10961 MEMB     95       OSM      H9F      HEL1     0.150000       1.00800           0
     10962 MEMB     95       OSM      C10F     CEL1    -0.150000       12.0110           0
     10963 MEMB     95       OSM      H10F     HEL1     0.150000       1.00800           0
     10964 MEMB     95       OSM      C11F     CTL2    -0.180000       12.0110           0
     10965 MEMB     95       OSM      H11F     HAL2     0.900000E-01   1.00800           0
     10966 MEMB     95       OSM      H11G     HAL2     0.900000E-01   1.00800           0
     10967 MEMB     95       OSM      C12F     CTL2    -0.180000       12.0110           0
     10968 MEMB     95       OSM      H12F     HAL2     0.900000E-01   1.00800           0
     10969 MEMB     95       OSM      H12G     HAL2     0.900000E-01   1.00800           0
     10970 MEMB     95       OSM      C13F     CTL2    -0.180000       12.0110           0
     10971 MEMB     95       OSM      H13F     HAL2     0.900000E-01   1.00800           0
     10972 MEMB     95       OSM      H13G     HAL2     0.900000E-01   1.00800           0
     10973 MEMB     95       OSM      C14F     CTL2    -0.180000       12.0110           0
     10974 MEMB     95       OSM      H14F     HAL2     0.900000E-01   1.00800           0
     10975 MEMB     95       OSM      H14G     HAL2     0.900000E-01   1.00800           0
     10976 MEMB     95       OSM      C15F     CTL2    -0.180000       12.0110           0
     10977 MEMB     95       OSM      H15F     HAL2     0.900000E-01   1.00800           0
     10978 MEMB     95       OSM      H15G     HAL2     0.900000E-01   1.00800           0
     10979 MEMB     95       OSM      C16F     CTL2    -0.180000       12.0110           0
     10980 MEMB     95       OSM      H16F     HAL2     0.900000E-01   1.00800           0
     10981 MEMB     95       OSM      H16G     HAL2     0.900000E-01   1.00800           0
     10982 MEMB     95       OSM      C17F     CTL2    -0.180000       12.0110           0
     10983 MEMB     95       OSM      H17F     HAL2     0.900000E-01   1.00800           0
     10984 MEMB     95       OSM      H17G     HAL2     0.900000E-01   1.00800           0
     10985 MEMB     95       OSM      C18F     CTL3    -0.270000       12.0110           0
     10986 MEMB     95       OSM      H18F     HAL3     0.900000E-01   1.00800           0
     10987 MEMB     95       OSM      H18G     HAL3     0.900000E-01   1.00800           0
     10988 MEMB     95       OSM      H18H     HAL3     0.900000E-01   1.00800           0
     10989 MEMB     96       SLPC     N        NTL     -0.600000       14.0070           0
     10990 MEMB     96       SLPC     C13      CTL5    -0.350000       12.0110           0
     10991 MEMB     96       SLPC     H13A     HL       0.250000       1.00800           0
     10992 MEMB     96       SLPC     H13B     HL       0.250000       1.00800           0
     10993 MEMB     96       SLPC     H13C     HL       0.250000       1.00800           0
     10994 MEMB     96       SLPC     C14      CTL5    -0.350000       12.0110           0
     10995 MEMB     96       SLPC     H14A     HL       0.250000       1.00800           0
     10996 MEMB     96       SLPC     H14B     HL       0.250000       1.00800           0
     10997 MEMB     96       SLPC     H14C     HL       0.250000       1.00800           0
     10998 MEMB     96       SLPC     C15      CTL5    -0.350000       12.0110           0
     10999 MEMB     96       SLPC     H15A     HL       0.250000       1.00800           0
     11000 MEMB     96       SLPC     H15B     HL       0.250000       1.00800           0
     11001 MEMB     96       SLPC     H15C     HL       0.250000       1.00800           0
     11002 MEMB     96       SLPC     C12      CTL2    -0.100000       12.0110           0
     11003 MEMB     96       SLPC     H12A     HL       0.250000       1.00800           0
     11004 MEMB     96       SLPC     H12B     HL       0.250000       1.00800           0
     11005 MEMB     96       SLPC     C11      CTL2    -0.800000E-01   12.0110           0
     11006 MEMB     96       SLPC     H11A     HAL2     0.900000E-01   1.00800           0
     11007 MEMB     96       SLPC     H11B     HAL2     0.900000E-01   1.00800           0
     11008 MEMB     96       SLPC     P        PL        1.50000       30.9740           0
     11009 MEMB     96       SLPC     O13      O2L     -0.780000       15.9994           0
     11010 MEMB     96       SLPC     O14      O2L     -0.780000       15.9994           0
     11011 MEMB     96       SLPC     O12      OSLP    -0.570000       15.9994           0
     11012 MEMB     96       SLPC     O11      OSLP    -0.570000       15.9994           0
     11013 MEMB     96       SLPC     C1       CTL2    -0.800000E-01   12.0110           0
     11014 MEMB     96       SLPC     HA       HAL2     0.900000E-01   1.00800           0
     11015 MEMB     96       SLPC     HB       HAL2     0.900000E-01   1.00800           0
     11016 MEMB     96       SLPC     C2       CTL1     0.170000       12.0110           0
     11017 MEMB     96       SLPC     HS       HAL1     0.900000E-01   1.00800           0
     11018 MEMB     96       SLPC     O21      OSL     -0.490000       15.9994           0
     11019 MEMB     96       SLPC     C21      CL       0.900000       12.0110           0
     11020 MEMB     96       SLPC     O22      OBL     -0.630000       15.9994           0
     11021 MEMB     96       SLPC     C22      CTL2    -0.220000       12.0110           0
     11022 MEMB     96       SLPC     H2R      HAL2     0.900000E-01   1.00800           0
     11023 MEMB     96       SLPC     H2S      HAL2     0.900000E-01   1.00800           0
     11024 MEMB     96       SLPC     C3       CTL2     0.800000E-01   12.0110           0
     11025 MEMB     96       SLPC     HX       HAL2     0.900000E-01   1.00800           0
     11026 MEMB     96       SLPC     HY       HAL2     0.900000E-01   1.00800           0
     11027 MEMB     96       SLPC     O31      OSL     -0.490000       15.9994           0
     11028 MEMB     96       SLPC     C31      CL       0.900000       12.0110           0
     11029 MEMB     96       SLPC     O32      OBL     -0.630000       15.9994           0
     11030 MEMB     96       SLPC     C32      CTL2    -0.220000       12.0110           0
     11031 MEMB     96       SLPC     H2X      HAL2     0.900000E-01   1.00800           0
     11032 MEMB     96       SLPC     H2Y      HAL2     0.900000E-01   1.00800           0
     11033 MEMB     96       SLPC     C23      CTL2    -0.180000       12.0110           0
     11034 MEMB     96       SLPC     H3R      HAL2     0.900000E-01   1.00800           0
     11035 MEMB     96       SLPC     H3S      HAL2     0.900000E-01   1.00800           0
     11036 MEMB     96       SLPC     C24      CTL2    -0.180000       12.0110           0
     11037 MEMB     96       SLPC     H4R      HAL2     0.900000E-01   1.00800           0
     11038 MEMB     96       SLPC     H4S      HAL2     0.900000E-01   1.00800           0
     11039 MEMB     96       SLPC     C25      CTL2    -0.180000       12.0110           0
     11040 MEMB     96       SLPC     H5R      HAL2     0.900000E-01   1.00800           0
     11041 MEMB     96       SLPC     H5S      HAL2     0.900000E-01   1.00800           0
     11042 MEMB     96       SLPC     C26      CTL2    -0.180000       12.0110           0
     11043 MEMB     96       SLPC     H6R      HAL2     0.900000E-01   1.00800           0
     11044 MEMB     96       SLPC     H6S      HAL2     0.900000E-01   1.00800           0
     11045 MEMB     96       SLPC     C27      CTL2    -0.180000       12.0110           0
     11046 MEMB     96       SLPC     H7R      HAL2     0.900000E-01   1.00800           0
     11047 MEMB     96       SLPC     H7S      HAL2     0.900000E-01   1.00800           0
     11048 MEMB     96       SLPC     C28      CTL2    -0.180000       12.0110           0
     11049 MEMB     96       SLPC     H8R      HAL2     0.900000E-01   1.00800           0
     11050 MEMB     96       SLPC     H8S      HAL2     0.900000E-01   1.00800           0
     11051 MEMB     96       SLPC     C29      CEL1    -0.150000       12.0110           0
     11052 MEMB     96       SLPC     H9R      HEL1     0.150000       1.00800           0
     11053 MEMB     96       SLPC     C210     CEL1    -0.150000       12.0110           0
     11054 MEMB     96       SLPC     H10R     HEL1     0.150000       1.00800           0
     11055 MEMB     96       SLPC     C211     CTL2    -0.180000       12.0110           0
     11056 MEMB     96       SLPC     H11R     HAL2     0.900000E-01   1.00800           0
     11057 MEMB     96       SLPC     H11S     HAL2     0.900000E-01   1.00800           0
     11058 MEMB     96       SLPC     C212     CEL1    -0.150000       12.0110           0
     11059 MEMB     96       SLPC     H12R     HEL1     0.150000       1.00800           0
     11060 MEMB     96       SLPC     C213     CEL1    -0.150000       12.0110           0
     11061 MEMB     96       SLPC     H13R     HEL1     0.150000       1.00800           0
     11062 MEMB     96       SLPC     C214     CTL2    -0.180000       12.0110           0
     11063 MEMB     96       SLPC     H14R     HAL2     0.900000E-01   1.00800           0
     11064 MEMB     96       SLPC     H14S     HAL2     0.900000E-01   1.00800           0
     11065 MEMB     96       SLPC     C215     CTL2    -0.180000       12.0110           0
     11066 MEMB     96       SLPC     H15R     HAL2     0.900000E-01   1.00800           0
     11067 MEMB     96       SLPC     H15S     HAL2     0.900000E-01   1.00800           0
     11068 MEMB     96       SLPC     C216     CTL2    -0.180000       12.0110           0
     11069 MEMB     96       SLPC     H16R     HAL2     0.900000E-01   1.00800           0
     11070 MEMB     96       SLPC     H16S     HAL2     0.900000E-01   1.00800           0
     11071 MEMB     96       SLPC     C217     CTL2    -0.180000       12.0110           0
     11072 MEMB     96       SLPC     H17R     HAL2     0.900000E-01   1.00800           0
     11073 MEMB     96       SLPC     H17S     HAL2     0.900000E-01   1.00800           0
     11074 MEMB     96       SLPC     C218     CTL3    -0.270000       12.0110           0
     11075 MEMB     96       SLPC     H18R     HAL3     0.900000E-01   1.00800           0
     11076 MEMB     96       SLPC     H18S     HAL3     0.900000E-01   1.00800           0
     11077 MEMB     96       SLPC     H18T     HAL3     0.900000E-01   1.00800           0
     11078 MEMB     96       SLPC     C33      CTL2    -0.180000       12.0110           0
     11079 MEMB     96       SLPC     H3X      HAL2     0.900000E-01   1.00800           0
     11080 MEMB     96       SLPC     H3Y      HAL2     0.900000E-01   1.00800           0
     11081 MEMB     96       SLPC     C34      CTL2    -0.180000       12.0110           0
     11082 MEMB     96       SLPC     H4X      HAL2     0.900000E-01   1.00800           0
     11083 MEMB     96       SLPC     H4Y      HAL2     0.900000E-01   1.00800           0
     11084 MEMB     96       SLPC     C35      CTL2    -0.180000       12.0110           0
     11085 MEMB     96       SLPC     H5X      HAL2     0.900000E-01   1.00800           0
     11086 MEMB     96       SLPC     H5Y      HAL2     0.900000E-01   1.00800           0
     11087 MEMB     96       SLPC     C36      CTL2    -0.180000       12.0110           0
     11088 MEMB     96       SLPC     H6X      HAL2     0.900000E-01   1.00800           0
     11089 MEMB     96       SLPC     H6Y      HAL2     0.900000E-01   1.00800           0
     11090 MEMB     96       SLPC     C37      CTL2    -0.180000       12.0110           0
     11091 MEMB     96       SLPC     H7X      HAL2     0.900000E-01   1.00800           0
     11092 MEMB     96       SLPC     H7Y      HAL2     0.900000E-01   1.00800           0
     11093 MEMB     96       SLPC     C38      CTL2    -0.180000       12.0110           0
     11094 MEMB     96       SLPC     H8X      HAL2     0.900000E-01   1.00800           0
     11095 MEMB     96       SLPC     H8Y      HAL2     0.900000E-01   1.00800           0
     11096 MEMB     96       SLPC     C39      CTL2    -0.180000       12.0110           0
     11097 MEMB     96       SLPC     H9X      HAL2     0.900000E-01   1.00800           0
     11098 MEMB     96       SLPC     H9Y      HAL2     0.900000E-01   1.00800           0
     11099 MEMB     96       SLPC     C310     CTL2    -0.180000       12.0110           0
     11100 MEMB     96       SLPC     H10X     HAL2     0.900000E-01   1.00800           0
     11101 MEMB     96       SLPC     H10Y     HAL2     0.900000E-01   1.00800           0
     11102 MEMB     96       SLPC     C311     CTL2    -0.180000       12.0110           0
     11103 MEMB     96       SLPC     H11X     HAL2     0.900000E-01   1.00800           0
     11104 MEMB     96       SLPC     H11Y     HAL2     0.900000E-01   1.00800           0
     11105 MEMB     96       SLPC     C312     CTL2    -0.180000       12.0110           0
     11106 MEMB     96       SLPC     H12X     HAL2     0.900000E-01   1.00800           0
     11107 MEMB     96       SLPC     H12Y     HAL2     0.900000E-01   1.00800           0
     11108 MEMB     96       SLPC     C313     CTL2    -0.180000       12.0110           0
     11109 MEMB     96       SLPC     H13X     HAL2     0.900000E-01   1.00800           0
     11110 MEMB     96       SLPC     H13Y     HAL2     0.900000E-01   1.00800           0
     11111 MEMB     96       SLPC     C314     CTL2    -0.180000       12.0110           0
     11112 MEMB     96       SLPC     H14X     HAL2     0.900000E-01   1.00800           0
     11113 MEMB     96       SLPC     H14Y     HAL2     0.900000E-01   1.00800           0
     11114 MEMB     96       SLPC     C315     CTL2    -0.180000       12.0110           0
     11115 MEMB     96       SLPC     H15X     HAL2     0.900000E-01   1.00800           0
     11116 MEMB     96       SLPC     H15Y     HAL2     0.900000E-01   1.00800           0
     11117 MEMB     96       SLPC     C316     CTL2    -0.180000       12.0110           0
     11118 MEMB     96       SLPC     H16X     HAL2     0.900000E-01   1.00800           0
     11119 MEMB     96       SLPC     H16Y     HAL2     0.900000E-01   1.00800           0
     11120 MEMB     96       SLPC     C317     CTL2    -0.180000       12.0110           0
     11121 MEMB     96       SLPC     H17X     HAL2     0.900000E-01   1.00800           0
     11122 MEMB     96       SLPC     H17Y     HAL2     0.900000E-01   1.00800           0
     11123 MEMB     96       SLPC     C318     CTL3    -0.270000       12.0110           0
     11124 MEMB     96       SLPC     H18X     HAL3     0.900000E-01   1.00800           0
     11125 MEMB     96       SLPC     H18Y     HAL3     0.900000E-01   1.00800           0
     11126 MEMB     96       SLPC     H18Z     HAL3     0.900000E-01   1.00800           0
     11127 MEMB     97       SAPS     N        NH3L    -0.300000       14.0070           0
     11128 MEMB     97       SAPS     HN1      HCL      0.330000       1.00800           0
     11129 MEMB     97       SAPS     HN2      HCL      0.330000       1.00800           0
     11130 MEMB     97       SAPS     HN3      HCL      0.330000       1.00800           0
     11131 MEMB     97       SAPS     C12      CTL1     0.210000       12.0110           0
     11132 MEMB     97       SAPS     H12A     HBL      0.100000       1.00800           0
     11133 MEMB     97       SAPS     C13      CCL      0.340000       12.0110           0
     11134 MEMB     97       SAPS     O13A     OCL     -0.670000       15.9994           0
     11135 MEMB     97       SAPS     O13B     OCL     -0.670000       15.9994           0
     11136 MEMB     97       SAPS     C11      CTL2    -0.800000E-01   12.0110           0
     11137 MEMB     97       SAPS     H11A     HAL2     0.900000E-01   1.00800           0
     11138 MEMB     97       SAPS     H11B     HAL2     0.900000E-01   1.00800           0
     11139 MEMB     97       SAPS     P        PL        1.50000       30.9740           0
     11140 MEMB     97       SAPS     O13      O2L     -0.780000       15.9994           0
     11141 MEMB     97       SAPS     O14      O2L     -0.780000       15.9994           0
     11142 MEMB     97       SAPS     O12      OSLP    -0.570000       15.9994           0
     11143 MEMB     97       SAPS     O11      OSLP    -0.570000       15.9994           0
     11144 MEMB     97       SAPS     C1       CTL2    -0.800000E-01   12.0110           0
     11145 MEMB     97       SAPS     HA       HAL2     0.900000E-01   1.00800           0
     11146 MEMB     97       SAPS     HB       HAL2     0.900000E-01   1.00800           0
     11147 MEMB     97       SAPS     C2       CTL1     0.170000       12.0110           0
     11148 MEMB     97       SAPS     HS       HAL1     0.900000E-01   1.00800           0
     11149 MEMB     97       SAPS     O21      OSL     -0.490000       15.9994           0
     11150 MEMB     97       SAPS     C21      CL       0.900000       12.0110           0
     11151 MEMB     97       SAPS     O22      OBL     -0.630000       15.9994           0
     11152 MEMB     97       SAPS     C22      CTL2    -0.220000       12.0110           0
     11153 MEMB     97       SAPS     H2R      HAL2     0.900000E-01   1.00800           0
     11154 MEMB     97       SAPS     H2S      HAL2     0.900000E-01   1.00800           0
     11155 MEMB     97       SAPS     C3       CTL2     0.800000E-01   12.0110           0
     11156 MEMB     97       SAPS     HX       HAL2     0.900000E-01   1.00800           0
     11157 MEMB     97       SAPS     HY       HAL2     0.900000E-01   1.00800           0
     11158 MEMB     97       SAPS     O31      OSL     -0.490000       15.9994           0
     11159 MEMB     97       SAPS     C31      CL       0.900000       12.0110           0
     11160 MEMB     97       SAPS     O32      OBL     -0.630000       15.9994           0
     11161 MEMB     97       SAPS     C32      CTL2    -0.220000       12.0110           0
     11162 MEMB     97       SAPS     H2X      HAL2     0.900000E-01   1.00800           0
     11163 MEMB     97       SAPS     H2Y      HAL2     0.900000E-01   1.00800           0
     11164 MEMB     97       SAPS     C23      CTL2    -0.180000       12.0110           0
     11165 MEMB     97       SAPS     H3R      HAL2     0.900000E-01   1.00800           0
     11166 MEMB     97       SAPS     H3S      HAL2     0.900000E-01   1.00800           0
     11167 MEMB     97       SAPS     C24      CTL2    -0.180000       12.0110           0
     11168 MEMB     97       SAPS     H4R      HAL2     0.900000E-01   1.00800           0
     11169 MEMB     97       SAPS     H4S      HAL2     0.900000E-01   1.00800           0
     11170 MEMB     97       SAPS     C25      CEL1    -0.150000       12.0110           0
     11171 MEMB     97       SAPS     H5R      HEL1     0.150000       1.00800           0
     11172 MEMB     97       SAPS     C26      CEL1    -0.150000       12.0110           0
     11173 MEMB     97       SAPS     H6R      HEL1     0.150000       1.00800           0
     11174 MEMB     97       SAPS     C27      CTL2    -0.180000       12.0110           0
     11175 MEMB     97       SAPS     H7R      HAL2     0.900000E-01   1.00800           0
     11176 MEMB     97       SAPS     H7S      HAL2     0.900000E-01   1.00800           0
     11177 MEMB     97       SAPS     C28      CEL1    -0.150000       12.0110           0
     11178 MEMB     97       SAPS     H8R      HEL1     0.150000       1.00800           0
     11179 MEMB     97       SAPS     C29      CEL1    -0.150000       12.0110           0
     11180 MEMB     97       SAPS     H9R      HEL1     0.150000       1.00800           0
     11181 MEMB     97       SAPS     C210     CTL2    -0.180000       12.0110           0
     11182 MEMB     97       SAPS     H10R     HAL2     0.900000E-01   1.00800           0
     11183 MEMB     97       SAPS     H10S     HAL2     0.900000E-01   1.00800           0
     11184 MEMB     97       SAPS     C211     CEL1    -0.150000       12.0110           0
     11185 MEMB     97       SAPS     H11R     HEL1     0.150000       1.00800           0
     11186 MEMB     97       SAPS     C212     CEL1    -0.150000       12.0110           0
     11187 MEMB     97       SAPS     H12R     HEL1     0.150000       1.00800           0
     11188 MEMB     97       SAPS     C213     CTL2    -0.180000       12.0110           0
     11189 MEMB     97       SAPS     H13R     HAL2     0.900000E-01   1.00800           0
     11190 MEMB     97       SAPS     H13S     HAL2     0.900000E-01   1.00800           0
     11191 MEMB     97       SAPS     C214     CEL1    -0.150000       12.0110           0
     11192 MEMB     97       SAPS     H14R     HEL1     0.150000       1.00800           0
     11193 MEMB     97       SAPS     C215     CEL1    -0.150000       12.0110           0
     11194 MEMB     97       SAPS     H15R     HEL1     0.150000       1.00800           0
     11195 MEMB     97       SAPS     C216     CTL2    -0.180000       12.0110           0
     11196 MEMB     97       SAPS     H16R     HAL2     0.900000E-01   1.00800           0
     11197 MEMB     97       SAPS     H16S     HAL2     0.900000E-01   1.00800           0
     11198 MEMB     97       SAPS     C217     CTL2    -0.180000       12.0110           0
     11199 MEMB     97       SAPS     H17R     HAL2     0.900000E-01   1.00800           0
     11200 MEMB     97       SAPS     H17S     HAL2     0.900000E-01   1.00800           0
     11201 MEMB     97       SAPS     C218     CTL2    -0.180000       12.0110           0
     11202 MEMB     97       SAPS     H18R     HAL2     0.900000E-01   1.00800           0
     11203 MEMB     97       SAPS     H18S     HAL2     0.900000E-01   1.00800           0
     11204 MEMB     97       SAPS     C219     CTL2    -0.180000       12.0110           0
     11205 MEMB     97       SAPS     H19R     HAL2     0.900000E-01   1.00800           0
     11206 MEMB     97       SAPS     H19S     HAL2     0.900000E-01   1.00800           0
     11207 MEMB     97       SAPS     C220     CTL3    -0.270000       12.0110           0
     11208 MEMB     97       SAPS     H20R     HAL3     0.900000E-01   1.00800           0
     11209 MEMB     97       SAPS     H20S     HAL3     0.900000E-01   1.00800           0
     11210 MEMB     97       SAPS     H20T     HAL3     0.900000E-01   1.00800           0
     11211 MEMB     97       SAPS     C33      CTL2    -0.180000       12.0110           0
     11212 MEMB     97       SAPS     H3X      HAL2     0.900000E-01   1.00800           0
     11213 MEMB     97       SAPS     H3Y      HAL2     0.900000E-01   1.00800           0
     11214 MEMB     97       SAPS     C34      CTL2    -0.180000       12.0110           0
     11215 MEMB     97       SAPS     H4X      HAL2     0.900000E-01   1.00800           0
     11216 MEMB     97       SAPS     H4Y      HAL2     0.900000E-01   1.00800           0
     11217 MEMB     97       SAPS     C35      CTL2    -0.180000       12.0110           0
     11218 MEMB     97       SAPS     H5X      HAL2     0.900000E-01   1.00800           0
     11219 MEMB     97       SAPS     H5Y      HAL2     0.900000E-01   1.00800           0
     11220 MEMB     97       SAPS     C36      CTL2    -0.180000       12.0110           0
     11221 MEMB     97       SAPS     H6X      HAL2     0.900000E-01   1.00800           0
     11222 MEMB     97       SAPS     H6Y      HAL2     0.900000E-01   1.00800           0
     11223 MEMB     97       SAPS     C37      CTL2    -0.180000       12.0110           0
     11224 MEMB     97       SAPS     H7X      HAL2     0.900000E-01   1.00800           0
     11225 MEMB     97       SAPS     H7Y      HAL2     0.900000E-01   1.00800           0
     11226 MEMB     97       SAPS     C38      CTL2    -0.180000       12.0110           0
     11227 MEMB     97       SAPS     H8X      HAL2     0.900000E-01   1.00800           0
     11228 MEMB     97       SAPS     H8Y      HAL2     0.900000E-01   1.00800           0
     11229 MEMB     97       SAPS     C39      CTL2    -0.180000       12.0110           0
     11230 MEMB     97       SAPS     H9X      HAL2     0.900000E-01   1.00800           0
     11231 MEMB     97       SAPS     H9Y      HAL2     0.900000E-01   1.00800           0
     11232 MEMB     97       SAPS     C310     CTL2    -0.180000       12.0110           0
     11233 MEMB     97       SAPS     H10X     HAL2     0.900000E-01   1.00800           0
     11234 MEMB     97       SAPS     H10Y     HAL2     0.900000E-01   1.00800           0
     11235 MEMB     97       SAPS     C311     CTL2    -0.180000       12.0110           0
     11236 MEMB     97       SAPS     H11X     HAL2     0.900000E-01   1.00800           0
     11237 MEMB     97       SAPS     H11Y     HAL2     0.900000E-01   1.00800           0
     11238 MEMB     97       SAPS     C312     CTL2    -0.180000       12.0110           0
     11239 MEMB     97       SAPS     H12X     HAL2     0.900000E-01   1.00800           0
     11240 MEMB     97       SAPS     H12Y     HAL2     0.900000E-01   1.00800           0
     11241 MEMB     97       SAPS     C313     CTL2    -0.180000       12.0110           0
     11242 MEMB     97       SAPS     H13X     HAL2     0.900000E-01   1.00800           0
     11243 MEMB     97       SAPS     H13Y     HAL2     0.900000E-01   1.00800           0
     11244 MEMB     97       SAPS     C314     CTL2    -0.180000       12.0110           0
     11245 MEMB     97       SAPS     H14X     HAL2     0.900000E-01   1.00800           0
     11246 MEMB     97       SAPS     H14Y     HAL2     0.900000E-01   1.00800           0
     11247 MEMB     97       SAPS     C315     CTL2    -0.180000       12.0110           0
     11248 MEMB     97       SAPS     H15X     HAL2     0.900000E-01   1.00800           0
     11249 MEMB     97       SAPS     H15Y     HAL2     0.900000E-01   1.00800           0
     11250 MEMB     97       SAPS     C316     CTL2    -0.180000       12.0110           0
     11251 MEMB     97       SAPS     H16X     HAL2     0.900000E-01   1.00800           0
     11252 MEMB     97       SAPS     H16Y     HAL2     0.900000E-01   1.00800           0
     11253 MEMB     97       SAPS     C317     CTL2    -0.180000       12.0110           0
     11254 MEMB     97       SAPS     H17X     HAL2     0.900000E-01   1.00800           0
     11255 MEMB     97       SAPS     H17Y     HAL2     0.900000E-01   1.00800           0
     11256 MEMB     97       SAPS     C318     CTL3    -0.270000       12.0110           0
     11257 MEMB     97       SAPS     H18X     HAL3     0.900000E-01   1.00800           0
     11258 MEMB     97       SAPS     H18Y     HAL3     0.900000E-01   1.00800           0
     11259 MEMB     97       SAPS     H18Z     HAL3     0.900000E-01   1.00800           0
     11260 MEMB     98       SOPE     N        NH3L    -0.300000       14.0070           0
     11261 MEMB     98       SOPE     HN1      HCL      0.330000       1.00800           0
     11262 MEMB     98       SOPE     HN2      HCL      0.330000       1.00800           0
     11263 MEMB     98       SOPE     HN3      HCL      0.330000       1.00800           0
     11264 MEMB     98       SOPE     C12      CTL2     0.130000       12.0110           0
     11265 MEMB     98       SOPE     H12A     HAL2     0.900000E-01   1.00800           0
     11266 MEMB     98       SOPE     H12B     HAL2     0.900000E-01   1.00800           0
     11267 MEMB     98       SOPE     C11      CTL2    -0.800000E-01   12.0110           0
     11268 MEMB     98       SOPE     H11A     HAL2     0.900000E-01   1.00800           0
     11269 MEMB     98       SOPE     H11B     HAL2     0.900000E-01   1.00800           0
     11270 MEMB     98       SOPE     P        PL        1.50000       30.9740           0
     11271 MEMB     98       SOPE     O13      O2L     -0.780000       15.9994           0
     11272 MEMB     98       SOPE     O14      O2L     -0.780000       15.9994           0
     11273 MEMB     98       SOPE     O12      OSLP    -0.570000       15.9994           0
     11274 MEMB     98       SOPE     O11      OSLP    -0.570000       15.9994           0
     11275 MEMB     98       SOPE     C1       CTL2    -0.800000E-01   12.0110           0
     11276 MEMB     98       SOPE     HA       HAL2     0.900000E-01   1.00800           0
     11277 MEMB     98       SOPE     HB       HAL2     0.900000E-01   1.00800           0
     11278 MEMB     98       SOPE     C2       CTL1     0.170000       12.0110           0
     11279 MEMB     98       SOPE     HS       HAL1     0.900000E-01   1.00800           0
     11280 MEMB     98       SOPE     O21      OSL     -0.490000       15.9994           0
     11281 MEMB     98       SOPE     C21      CL       0.900000       12.0110           0
     11282 MEMB     98       SOPE     O22      OBL     -0.630000       15.9994           0
     11283 MEMB     98       SOPE     C22      CTL2    -0.220000       12.0110           0
     11284 MEMB     98       SOPE     H2R      HAL2     0.900000E-01   1.00800           0
     11285 MEMB     98       SOPE     H2S      HAL2     0.900000E-01   1.00800           0
     11286 MEMB     98       SOPE     C3       CTL2     0.800000E-01   12.0110           0
     11287 MEMB     98       SOPE     HX       HAL2     0.900000E-01   1.00800           0
     11288 MEMB     98       SOPE     HY       HAL2     0.900000E-01   1.00800           0
     11289 MEMB     98       SOPE     O31      OSL     -0.490000       15.9994           0
     11290 MEMB     98       SOPE     C31      CL       0.900000       12.0110           0
     11291 MEMB     98       SOPE     O32      OBL     -0.630000       15.9994           0
     11292 MEMB     98       SOPE     C32      CTL2    -0.220000       12.0110           0
     11293 MEMB     98       SOPE     H2X      HAL2     0.900000E-01   1.00800           0
     11294 MEMB     98       SOPE     H2Y      HAL2     0.900000E-01   1.00800           0
     11295 MEMB     98       SOPE     C23      CTL2    -0.180000       12.0110           0
     11296 MEMB     98       SOPE     H3R      HAL2     0.900000E-01   1.00800           0
     11297 MEMB     98       SOPE     H3S      HAL2     0.900000E-01   1.00800           0
     11298 MEMB     98       SOPE     C24      CTL2    -0.180000       12.0110           0
     11299 MEMB     98       SOPE     H4R      HAL2     0.900000E-01   1.00800           0
     11300 MEMB     98       SOPE     H4S      HAL2     0.900000E-01   1.00800           0
     11301 MEMB     98       SOPE     C25      CTL2    -0.180000       12.0110           0
     11302 MEMB     98       SOPE     H5R      HAL2     0.900000E-01   1.00800           0
     11303 MEMB     98       SOPE     H5S      HAL2     0.900000E-01   1.00800           0
     11304 MEMB     98       SOPE     C26      CTL2    -0.180000       12.0110           0
     11305 MEMB     98       SOPE     H6R      HAL2     0.900000E-01   1.00800           0
     11306 MEMB     98       SOPE     H6S      HAL2     0.900000E-01   1.00800           0
     11307 MEMB     98       SOPE     C27      CTL2    -0.180000       12.0110           0
     11308 MEMB     98       SOPE     H7R      HAL2     0.900000E-01   1.00800           0
     11309 MEMB     98       SOPE     H7S      HAL2     0.900000E-01   1.00800           0
     11310 MEMB     98       SOPE     C28      CTL2    -0.180000       12.0110           0
     11311 MEMB     98       SOPE     H8R      HAL2     0.900000E-01   1.00800           0
     11312 MEMB     98       SOPE     H8S      HAL2     0.900000E-01   1.00800           0
     11313 MEMB     98       SOPE     C29      CEL1    -0.150000       12.0110           0
     11314 MEMB     98       SOPE     H91      HEL1     0.150000       1.00800           0
     11315 MEMB     98       SOPE     C210     CEL1    -0.150000       12.0110           0
     11316 MEMB     98       SOPE     H101     HEL1     0.150000       1.00800           0
     11317 MEMB     98       SOPE     C211     CTL2    -0.180000       12.0110           0
     11318 MEMB     98       SOPE     H11R     HAL2     0.900000E-01   1.00800           0
     11319 MEMB     98       SOPE     H11S     HAL2     0.900000E-01   1.00800           0
     11320 MEMB     98       SOPE     C212     CTL2    -0.180000       12.0110           0
     11321 MEMB     98       SOPE     H12R     HAL2     0.900000E-01   1.00800           0
     11322 MEMB     98       SOPE     H12S     HAL2     0.900000E-01   1.00800           0
     11323 MEMB     98       SOPE     C213     CTL2    -0.180000       12.0110           0
     11324 MEMB     98       SOPE     H13R     HAL2     0.900000E-01   1.00800           0
     11325 MEMB     98       SOPE     H13S     HAL2     0.900000E-01   1.00800           0
     11326 MEMB     98       SOPE     C214     CTL2    -0.180000       12.0110           0
     11327 MEMB     98       SOPE     H14R     HAL2     0.900000E-01   1.00800           0
     11328 MEMB     98       SOPE     H14S     HAL2     0.900000E-01   1.00800           0
     11329 MEMB     98       SOPE     C215     CTL2    -0.180000       12.0110           0
     11330 MEMB     98       SOPE     H15R     HAL2     0.900000E-01   1.00800           0
     11331 MEMB     98       SOPE     H15S     HAL2     0.900000E-01   1.00800           0
     11332 MEMB     98       SOPE     C216     CTL2    -0.180000       12.0110           0
     11333 MEMB     98       SOPE     H16R     HAL2     0.900000E-01   1.00800           0
     11334 MEMB     98       SOPE     H16S     HAL2     0.900000E-01   1.00800           0
     11335 MEMB     98       SOPE     C217     CTL2    -0.180000       12.0110           0
     11336 MEMB     98       SOPE     H17R     HAL2     0.900000E-01   1.00800           0
     11337 MEMB     98       SOPE     H17S     HAL2     0.900000E-01   1.00800           0
     11338 MEMB     98       SOPE     C218     CTL3    -0.270000       12.0110           0
     11339 MEMB     98       SOPE     H18R     HAL3     0.900000E-01   1.00800           0
     11340 MEMB     98       SOPE     H18S     HAL3     0.900000E-01   1.00800           0
     11341 MEMB     98       SOPE     H18T     HAL3     0.900000E-01   1.00800           0
     11342 MEMB     98       SOPE     C33      CTL2    -0.180000       12.0110           0
     11343 MEMB     98       SOPE     H3X      HAL2     0.900000E-01   1.00800           0
     11344 MEMB     98       SOPE     H3Y      HAL2     0.900000E-01   1.00800           0
     11345 MEMB     98       SOPE     C34      CTL2    -0.180000       12.0110           0
     11346 MEMB     98       SOPE     H4X      HAL2     0.900000E-01   1.00800           0
     11347 MEMB     98       SOPE     H4Y      HAL2     0.900000E-01   1.00800           0
     11348 MEMB     98       SOPE     C35      CTL2    -0.180000       12.0110           0
     11349 MEMB     98       SOPE     H5X      HAL2     0.900000E-01   1.00800           0
     11350 MEMB     98       SOPE     H5Y      HAL2     0.900000E-01   1.00800           0
     11351 MEMB     98       SOPE     C36      CTL2    -0.180000       12.0110           0
     11352 MEMB     98       SOPE     H6X      HAL2     0.900000E-01   1.00800           0
     11353 MEMB     98       SOPE     H6Y      HAL2     0.900000E-01   1.00800           0
     11354 MEMB     98       SOPE     C37      CTL2    -0.180000       12.0110           0
     11355 MEMB     98       SOPE     H7X      HAL2     0.900000E-01   1.00800           0
     11356 MEMB     98       SOPE     H7Y      HAL2     0.900000E-01   1.00800           0
     11357 MEMB     98       SOPE     C38      CTL2    -0.180000       12.0110           0
     11358 MEMB     98       SOPE     H8X      HAL2     0.900000E-01   1.00800           0
     11359 MEMB     98       SOPE     H8Y      HAL2     0.900000E-01   1.00800           0
     11360 MEMB     98       SOPE     C39      CTL2    -0.180000       12.0110           0
     11361 MEMB     98       SOPE     H9X      HAL2     0.900000E-01   1.00800           0
     11362 MEMB     98       SOPE     H9Y      HAL2     0.900000E-01   1.00800           0
     11363 MEMB     98       SOPE     C310     CTL2    -0.180000       12.0110           0
     11364 MEMB     98       SOPE     H10X     HAL2     0.900000E-01   1.00800           0
     11365 MEMB     98       SOPE     H10Y     HAL2     0.900000E-01   1.00800           0
     11366 MEMB     98       SOPE     C311     CTL2    -0.180000       12.0110           0
     11367 MEMB     98       SOPE     H11X     HAL2     0.900000E-01   1.00800           0
     11368 MEMB     98       SOPE     H11Y     HAL2     0.900000E-01   1.00800           0
     11369 MEMB     98       SOPE     C312     CTL2    -0.180000       12.0110           0
     11370 MEMB     98       SOPE     H12X     HAL2     0.900000E-01   1.00800           0
     11371 MEMB     98       SOPE     H12Y     HAL2     0.900000E-01   1.00800           0
     11372 MEMB     98       SOPE     C313     CTL2    -0.180000       12.0110           0
     11373 MEMB     98       SOPE     H13X     HAL2     0.900000E-01   1.00800           0
     11374 MEMB     98       SOPE     H13Y     HAL2     0.900000E-01   1.00800           0
     11375 MEMB     98       SOPE     C314     CTL2    -0.180000       12.0110           0
     11376 MEMB     98       SOPE     H14X     HAL2     0.900000E-01   1.00800           0
     11377 MEMB     98       SOPE     H14Y     HAL2     0.900000E-01   1.00800           0
     11378 MEMB     98       SOPE     C315     CTL2    -0.180000       12.0110           0
     11379 MEMB     98       SOPE     H15X     HAL2     0.900000E-01   1.00800           0
     11380 MEMB     98       SOPE     H15Y     HAL2     0.900000E-01   1.00800           0
     11381 MEMB     98       SOPE     C316     CTL2    -0.180000       12.0110           0
     11382 MEMB     98       SOPE     H16X     HAL2     0.900000E-01   1.00800           0
     11383 MEMB     98       SOPE     H16Y     HAL2     0.900000E-01   1.00800           0
     11384 MEMB     98       SOPE     C317     CTL2    -0.180000       12.0110           0
     11385 MEMB     98       SOPE     H17X     HAL2     0.900000E-01   1.00800           0
     11386 MEMB     98       SOPE     H17Y     HAL2     0.900000E-01   1.00800           0
     11387 MEMB     98       SOPE     C318     CTL3    -0.270000       12.0110           0
     11388 MEMB     98       SOPE     H18X     HAL3     0.900000E-01   1.00800           0
     11389 MEMB     98       SOPE     H18Y     HAL3     0.900000E-01   1.00800           0
     11390 MEMB     98       SOPE     H18Z     HAL3     0.900000E-01   1.00800           0
     11391 MEMB     99       SAPC     N        NTL     -0.600000       14.0070           0
     11392 MEMB     99       SAPC     C12      CTL2    -0.100000       12.0110           0
     11393 MEMB     99       SAPC     H12A     HL       0.250000       1.00800           0
     11394 MEMB     99       SAPC     H12B     HL       0.250000       1.00800           0
     11395 MEMB     99       SAPC     C13      CTL5    -0.350000       12.0110           0
     11396 MEMB     99       SAPC     H13A     HL       0.250000       1.00800           0
     11397 MEMB     99       SAPC     H13B     HL       0.250000       1.00800           0
     11398 MEMB     99       SAPC     H13C     HL       0.250000       1.00800           0
     11399 MEMB     99       SAPC     C14      CTL5    -0.350000       12.0110           0
     11400 MEMB     99       SAPC     H14A     HL       0.250000       1.00800           0
     11401 MEMB     99       SAPC     H14B     HL       0.250000       1.00800           0
     11402 MEMB     99       SAPC     H14C     HL       0.250000       1.00800           0
     11403 MEMB     99       SAPC     C15      CTL5    -0.350000       12.0110           0
     11404 MEMB     99       SAPC     H15A     HL       0.250000       1.00800           0
     11405 MEMB     99       SAPC     H15B     HL       0.250000       1.00800           0
     11406 MEMB     99       SAPC     H15C     HL       0.250000       1.00800           0
     11407 MEMB     99       SAPC     C11      CTL2    -0.800000E-01   12.0110           0
     11408 MEMB     99       SAPC     H11A     HAL2     0.900000E-01   1.00800           0
     11409 MEMB     99       SAPC     H11B     HAL2     0.900000E-01   1.00800           0
     11410 MEMB     99       SAPC     P        PL        1.50000       30.9740           0
     11411 MEMB     99       SAPC     O13      O2L     -0.780000       15.9994           0
     11412 MEMB     99       SAPC     O14      O2L     -0.780000       15.9994           0
     11413 MEMB     99       SAPC     O12      OSLP    -0.570000       15.9994           0
     11414 MEMB     99       SAPC     O11      OSLP    -0.570000       15.9994           0
     11415 MEMB     99       SAPC     C1       CTL2    -0.800000E-01   12.0110           0
     11416 MEMB     99       SAPC     HA       HAL2     0.900000E-01   1.00800           0
     11417 MEMB     99       SAPC     HB       HAL2     0.900000E-01   1.00800           0
     11418 MEMB     99       SAPC     C2       CTL1     0.170000       12.0110           0
     11419 MEMB     99       SAPC     HS       HAL1     0.900000E-01   1.00800           0
     11420 MEMB     99       SAPC     O21      OSL     -0.490000       15.9994           0
     11421 MEMB     99       SAPC     C21      CL       0.900000       12.0110           0
     11422 MEMB     99       SAPC     O22      OBL     -0.630000       15.9994           0
     11423 MEMB     99       SAPC     C22      CTL2    -0.220000       12.0110           0
     11424 MEMB     99       SAPC     H2R      HAL2     0.900000E-01   1.00800           0
     11425 MEMB     99       SAPC     H2S      HAL2     0.900000E-01   1.00800           0
     11426 MEMB     99       SAPC     C3       CTL2     0.800000E-01   12.0110           0
     11427 MEMB     99       SAPC     HX       HAL2     0.900000E-01   1.00800           0
     11428 MEMB     99       SAPC     HY       HAL2     0.900000E-01   1.00800           0
     11429 MEMB     99       SAPC     O31      OSL     -0.490000       15.9994           0
     11430 MEMB     99       SAPC     C31      CL       0.900000       12.0110           0
     11431 MEMB     99       SAPC     O32      OBL     -0.630000       15.9994           0
     11432 MEMB     99       SAPC     C32      CTL2    -0.220000       12.0110           0
     11433 MEMB     99       SAPC     H2X      HAL2     0.900000E-01   1.00800           0
     11434 MEMB     99       SAPC     H2Y      HAL2     0.900000E-01   1.00800           0
     11435 MEMB     99       SAPC     C23      CTL2    -0.180000       12.0110           0
     11436 MEMB     99       SAPC     H3R      HAL2     0.900000E-01   1.00800           0
     11437 MEMB     99       SAPC     H3S      HAL2     0.900000E-01   1.00800           0
     11438 MEMB     99       SAPC     C24      CTL2    -0.180000       12.0110           0
     11439 MEMB     99       SAPC     H4R      HAL2     0.900000E-01   1.00800           0
     11440 MEMB     99       SAPC     H4S      HAL2     0.900000E-01   1.00800           0
     11441 MEMB     99       SAPC     C25      CEL1    -0.150000       12.0110           0
     11442 MEMB     99       SAPC     H5R      HEL1     0.150000       1.00800           0
     11443 MEMB     99       SAPC     C26      CEL1    -0.150000       12.0110           0
     11444 MEMB     99       SAPC     H6R      HEL1     0.150000       1.00800           0
     11445 MEMB     99       SAPC     C27      CTL2    -0.180000       12.0110           0
     11446 MEMB     99       SAPC     H7R      HAL2     0.900000E-01   1.00800           0
     11447 MEMB     99       SAPC     H7S      HAL2     0.900000E-01   1.00800           0
     11448 MEMB     99       SAPC     C28      CEL1    -0.150000       12.0110           0
     11449 MEMB     99       SAPC     H8R      HEL1     0.150000       1.00800           0
     11450 MEMB     99       SAPC     C29      CEL1    -0.150000       12.0110           0
     11451 MEMB     99       SAPC     H9R      HEL1     0.150000       1.00800           0
     11452 MEMB     99       SAPC     C210     CTL2    -0.180000       12.0110           0
     11453 MEMB     99       SAPC     H10R     HAL2     0.900000E-01   1.00800           0
     11454 MEMB     99       SAPC     H10S     HAL2     0.900000E-01   1.00800           0
     11455 MEMB     99       SAPC     C211     CEL1    -0.150000       12.0110           0
     11456 MEMB     99       SAPC     H11R     HEL1     0.150000       1.00800           0
     11457 MEMB     99       SAPC     C212     CEL1    -0.150000       12.0110           0
     11458 MEMB     99       SAPC     H12R     HEL1     0.150000       1.00800           0
     11459 MEMB     99       SAPC     C213     CTL2    -0.180000       12.0110           0
     11460 MEMB     99       SAPC     H13R     HAL2     0.900000E-01   1.00800           0
     11461 MEMB     99       SAPC     H13S     HAL2     0.900000E-01   1.00800           0
     11462 MEMB     99       SAPC     C214     CEL1    -0.150000       12.0110           0
     11463 MEMB     99       SAPC     H14R     HEL1     0.150000       1.00800           0
     11464 MEMB     99       SAPC     C215     CEL1    -0.150000       12.0110           0
     11465 MEMB     99       SAPC     H15R     HEL1     0.150000       1.00800           0
     11466 MEMB     99       SAPC     C216     CTL2    -0.180000       12.0110           0
     11467 MEMB     99       SAPC     H16R     HAL2     0.900000E-01   1.00800           0
     11468 MEMB     99       SAPC     H16S     HAL2     0.900000E-01   1.00800           0
     11469 MEMB     99       SAPC     C217     CTL2    -0.180000       12.0110           0
     11470 MEMB     99       SAPC     H17R     HAL2     0.900000E-01   1.00800           0
     11471 MEMB     99       SAPC     H17S     HAL2     0.900000E-01   1.00800           0
     11472 MEMB     99       SAPC     C218     CTL2    -0.270000       12.0110           0
     11473 MEMB     99       SAPC     H18R     HAL2     0.900000E-01   1.00800           0
     11474 MEMB     99       SAPC     H18S     HAL2     0.900000E-01   1.00800           0
     11475 MEMB     99       SAPC     C219     CTL2    -0.180000       12.0110           0
     11476 MEMB     99       SAPC     H19R     HAL2     0.900000E-01   1.00800           0
     11477 MEMB     99       SAPC     H19S     HAL2     0.900000E-01   1.00800           0
     11478 MEMB     99       SAPC     C220     CTL3    -0.180000       12.0110           0
     11479 MEMB     99       SAPC     H20R     HAL3     0.900000E-01   1.00800           0
     11480 MEMB     99       SAPC     H20S     HAL3     0.900000E-01   1.00800           0
     11481 MEMB     99       SAPC     H20T     HAL3     0.900000E-01   1.00800           0
     11482 MEMB     99       SAPC     C33      CTL2    -0.180000       12.0110           0
     11483 MEMB     99       SAPC     H3X      HAL2     0.900000E-01   1.00800           0
     11484 MEMB     99       SAPC     H3Y      HAL2     0.900000E-01   1.00800           0
     11485 MEMB     99       SAPC     C34      CTL2    -0.180000       12.0110           0
     11486 MEMB     99       SAPC     H4X      HAL2     0.900000E-01   1.00800           0
     11487 MEMB     99       SAPC     H4Y      HAL2     0.900000E-01   1.00800           0
     11488 MEMB     99       SAPC     C35      CTL2    -0.180000       12.0110           0
     11489 MEMB     99       SAPC     H5X      HAL2     0.900000E-01   1.00800           0
     11490 MEMB     99       SAPC     H5Y      HAL2     0.900000E-01   1.00800           0
     11491 MEMB     99       SAPC     C36      CTL2    -0.180000       12.0110           0
     11492 MEMB     99       SAPC     H6X      HAL2     0.900000E-01   1.00800           0
     11493 MEMB     99       SAPC     H6Y      HAL2     0.900000E-01   1.00800           0
     11494 MEMB     99       SAPC     C37      CTL2    -0.180000       12.0110           0
     11495 MEMB     99       SAPC     H7X      HAL2     0.900000E-01   1.00800           0
     11496 MEMB     99       SAPC     H7Y      HAL2     0.900000E-01   1.00800           0
     11497 MEMB     99       SAPC     C38      CTL2    -0.180000       12.0110           0
     11498 MEMB     99       SAPC     H8X      HAL2     0.900000E-01   1.00800           0
     11499 MEMB     99       SAPC     H8Y      HAL2     0.900000E-01   1.00800           0
     11500 MEMB     99       SAPC     C39      CTL2    -0.180000       12.0110           0
     11501 MEMB     99       SAPC     H9X      HAL2     0.900000E-01   1.00800           0
     11502 MEMB     99       SAPC     H9Y      HAL2     0.900000E-01   1.00800           0
     11503 MEMB     99       SAPC     C310     CTL2    -0.180000       12.0110           0
     11504 MEMB     99       SAPC     H10X     HAL2     0.900000E-01   1.00800           0
     11505 MEMB     99       SAPC     H10Y     HAL2     0.900000E-01   1.00800           0
     11506 MEMB     99       SAPC     C311     CTL2    -0.180000       12.0110           0
     11507 MEMB     99       SAPC     H11X     HAL2     0.900000E-01   1.00800           0
     11508 MEMB     99       SAPC     H11Y     HAL2     0.900000E-01   1.00800           0
     11509 MEMB     99       SAPC     C312     CTL2    -0.180000       12.0110           0
     11510 MEMB     99       SAPC     H12X     HAL2     0.900000E-01   1.00800           0
     11511 MEMB     99       SAPC     H12Y     HAL2     0.900000E-01   1.00800           0
     11512 MEMB     99       SAPC     C313     CTL2    -0.180000       12.0110           0
     11513 MEMB     99       SAPC     H13X     HAL2     0.900000E-01   1.00800           0
     11514 MEMB     99       SAPC     H13Y     HAL2     0.900000E-01   1.00800           0
     11515 MEMB     99       SAPC     C314     CTL2    -0.180000       12.0110           0
     11516 MEMB     99       SAPC     H14X     HAL2     0.900000E-01   1.00800           0
     11517 MEMB     99       SAPC     H14Y     HAL2     0.900000E-01   1.00800           0
     11518 MEMB     99       SAPC     C315     CTL2    -0.180000       12.0110           0
     11519 MEMB     99       SAPC     H15X     HAL2     0.900000E-01   1.00800           0
     11520 MEMB     99       SAPC     H15Y     HAL2     0.900000E-01   1.00800           0
     11521 MEMB     99       SAPC     C316     CTL2    -0.180000       12.0110           0
     11522 MEMB     99       SAPC     H16X     HAL2     0.900000E-01   1.00800           0
     11523 MEMB     99       SAPC     H16Y     HAL2     0.900000E-01   1.00800           0
     11524 MEMB     99       SAPC     C317     CTL2    -0.180000       12.0110           0
     11525 MEMB     99       SAPC     H17X     HAL2     0.900000E-01   1.00800           0
     11526 MEMB     99       SAPC     H17Y     HAL2     0.900000E-01   1.00800           0
     11527 MEMB     99       SAPC     C318     CTL3    -0.270000       12.0110           0
     11528 MEMB     99       SAPC     H18X     HAL3     0.900000E-01   1.00800           0
     11529 MEMB     99       SAPC     H18Y     HAL3     0.900000E-01   1.00800           0
     11530 MEMB     99       SAPC     H18Z     HAL3     0.900000E-01   1.00800           0
     11531 MEMB     100      SAPE     N        NH3L    -0.300000       14.0070           0
     11532 MEMB     100      SAPE     HN1      HCL      0.330000       1.00800           0
     11533 MEMB     100      SAPE     HN2      HCL      0.330000       1.00800           0
     11534 MEMB     100      SAPE     HN3      HCL      0.330000       1.00800           0
     11535 MEMB     100      SAPE     C12      CTL2     0.130000       12.0110           0
     11536 MEMB     100      SAPE     H12A     HAL2     0.900000E-01   1.00800           0
     11537 MEMB     100      SAPE     H12B     HAL2     0.900000E-01   1.00800           0
     11538 MEMB     100      SAPE     C11      CTL2    -0.800000E-01   12.0110           0
     11539 MEMB     100      SAPE     H11A     HAL2     0.900000E-01   1.00800           0
     11540 MEMB     100      SAPE     H11B     HAL2     0.900000E-01   1.00800           0
     11541 MEMB     100      SAPE     P        PL        1.50000       30.9740           0
     11542 MEMB     100      SAPE     O13      O2L     -0.780000       15.9994           0
     11543 MEMB     100      SAPE     O14      O2L     -0.780000       15.9994           0
     11544 MEMB     100      SAPE     O12      OSLP    -0.570000       15.9994           0
     11545 MEMB     100      SAPE     O11      OSLP    -0.570000       15.9994           0
     11546 MEMB     100      SAPE     C1       CTL2    -0.800000E-01   12.0110           0
     11547 MEMB     100      SAPE     HA       HAL2     0.900000E-01   1.00800           0
     11548 MEMB     100      SAPE     HB       HAL2     0.900000E-01   1.00800           0
     11549 MEMB     100      SAPE     C2       CTL1     0.170000       12.0110           0
     11550 MEMB     100      SAPE     HS       HAL1     0.900000E-01   1.00800           0
     11551 MEMB     100      SAPE     O21      OSL     -0.490000       15.9994           0
     11552 MEMB     100      SAPE     C21      CL       0.900000       12.0110           0
     11553 MEMB     100      SAPE     O22      OBL     -0.630000       15.9994           0
     11554 MEMB     100      SAPE     C22      CTL2    -0.220000       12.0110           0
     11555 MEMB     100      SAPE     H2R      HAL2     0.900000E-01   1.00800           0
     11556 MEMB     100      SAPE     H2S      HAL2     0.900000E-01   1.00800           0
     11557 MEMB     100      SAPE     C3       CTL2     0.800000E-01   12.0110           0
     11558 MEMB     100      SAPE     HX       HAL2     0.900000E-01   1.00800           0
     11559 MEMB     100      SAPE     HY       HAL2     0.900000E-01   1.00800           0
     11560 MEMB     100      SAPE     O31      OSL     -0.490000       15.9994           0
     11561 MEMB     100      SAPE     C31      CL       0.900000       12.0110           0
     11562 MEMB     100      SAPE     O32      OBL     -0.630000       15.9994           0
     11563 MEMB     100      SAPE     C32      CTL2    -0.220000       12.0110           0
     11564 MEMB     100      SAPE     H2X      HAL2     0.900000E-01   1.00800           0
     11565 MEMB     100      SAPE     H2Y      HAL2     0.900000E-01   1.00800           0
     11566 MEMB     100      SAPE     C23      CTL2    -0.180000       12.0110           0
     11567 MEMB     100      SAPE     H3R      HAL2     0.900000E-01   1.00800           0
     11568 MEMB     100      SAPE     H3S      HAL2     0.900000E-01   1.00800           0
     11569 MEMB     100      SAPE     C24      CTL2    -0.180000       12.0110           0
     11570 MEMB     100      SAPE     H4R      HAL2     0.900000E-01   1.00800           0
     11571 MEMB     100      SAPE     H4S      HAL2     0.900000E-01   1.00800           0
     11572 MEMB     100      SAPE     C25      CEL1    -0.150000       12.0110           0
     11573 MEMB     100      SAPE     H5R      HEL1     0.150000       1.00800           0
     11574 MEMB     100      SAPE     C26      CEL1    -0.150000       12.0110           0
     11575 MEMB     100      SAPE     H6R      HEL1     0.150000       1.00800           0
     11576 MEMB     100      SAPE     C27      CTL2    -0.180000       12.0110           0
     11577 MEMB     100      SAPE     H7R      HAL2     0.900000E-01   1.00800           0
     11578 MEMB     100      SAPE     H7S      HAL2     0.900000E-01   1.00800           0
     11579 MEMB     100      SAPE     C28      CEL1    -0.150000       12.0110           0
     11580 MEMB     100      SAPE     H8R      HEL1     0.150000       1.00800           0
     11581 MEMB     100      SAPE     C29      CEL1    -0.150000       12.0110           0
     11582 MEMB     100      SAPE     H9R      HEL1     0.150000       1.00800           0
     11583 MEMB     100      SAPE     C210     CTL2    -0.180000       12.0110           0
     11584 MEMB     100      SAPE     H10R     HAL2     0.900000E-01   1.00800           0
     11585 MEMB     100      SAPE     H10S     HAL2     0.900000E-01   1.00800           0
     11586 MEMB     100      SAPE     C211     CEL1    -0.150000       12.0110           0
     11587 MEMB     100      SAPE     H11R     HEL1     0.150000       1.00800           0
     11588 MEMB     100      SAPE     C212     CEL1    -0.150000       12.0110           0
     11589 MEMB     100      SAPE     H12R     HEL1     0.150000       1.00800           0
     11590 MEMB     100      SAPE     C213     CTL2    -0.180000       12.0110           0
     11591 MEMB     100      SAPE     H13R     HAL2     0.900000E-01   1.00800           0
     11592 MEMB     100      SAPE     H13S     HAL2     0.900000E-01   1.00800           0
     11593 MEMB     100      SAPE     C214     CEL1    -0.150000       12.0110           0
     11594 MEMB     100      SAPE     H14R     HEL1     0.150000       1.00800           0
     11595 MEMB     100      SAPE     C215     CEL1    -0.150000       12.0110           0
     11596 MEMB     100      SAPE     H15R     HEL1     0.150000       1.00800           0
     11597 MEMB     100      SAPE     C216     CTL2    -0.180000       12.0110           0
     11598 MEMB     100      SAPE     H16R     HAL2     0.900000E-01   1.00800           0
     11599 MEMB     100      SAPE     H16S     HAL2     0.900000E-01   1.00800           0
     11600 MEMB     100      SAPE     C217     CTL2    -0.180000       12.0110           0
     11601 MEMB     100      SAPE     H17R     HAL2     0.900000E-01   1.00800           0
     11602 MEMB     100      SAPE     H17S     HAL2     0.900000E-01   1.00800           0
     11603 MEMB     100      SAPE     C218     CTL2    -0.180000       12.0110           0
     11604 MEMB     100      SAPE     H18R     HAL2     0.900000E-01   1.00800           0
     11605 MEMB     100      SAPE     H18S     HAL2     0.900000E-01   1.00800           0
     11606 MEMB     100      SAPE     C219     CTL2    -0.180000       12.0110           0
     11607 MEMB     100      SAPE     H19R     HAL2     0.900000E-01   1.00800           0
     11608 MEMB     100      SAPE     H19S     HAL2     0.900000E-01   1.00800           0
     11609 MEMB     100      SAPE     C220     CTL3    -0.270000       12.0110           0
     11610 MEMB     100      SAPE     H20R     HAL3     0.900000E-01   1.00800           0
     11611 MEMB     100      SAPE     H20S     HAL3     0.900000E-01   1.00800           0
     11612 MEMB     100      SAPE     H20T     HAL3     0.900000E-01   1.00800           0
     11613 MEMB     100      SAPE     C33      CTL2    -0.180000       12.0110           0
     11614 MEMB     100      SAPE     H3X      HAL2     0.900000E-01   1.00800           0
     11615 MEMB     100      SAPE     H3Y      HAL2     0.900000E-01   1.00800           0
     11616 MEMB     100      SAPE     C34      CTL2    -0.180000       12.0110           0
     11617 MEMB     100      SAPE     H4X      HAL2     0.900000E-01   1.00800           0
     11618 MEMB     100      SAPE     H4Y      HAL2     0.900000E-01   1.00800           0
     11619 MEMB     100      SAPE     C35      CTL2    -0.180000       12.0110           0
     11620 MEMB     100      SAPE     H5X      HAL2     0.900000E-01   1.00800           0
     11621 MEMB     100      SAPE     H5Y      HAL2     0.900000E-01   1.00800           0
     11622 MEMB     100      SAPE     C36      CTL2    -0.180000       12.0110           0
     11623 MEMB     100      SAPE     H6X      HAL2     0.900000E-01   1.00800           0
     11624 MEMB     100      SAPE     H6Y      HAL2     0.900000E-01   1.00800           0
     11625 MEMB     100      SAPE     C37      CTL2    -0.180000       12.0110           0
     11626 MEMB     100      SAPE     H7X      HAL2     0.900000E-01   1.00800           0
     11627 MEMB     100      SAPE     H7Y      HAL2     0.900000E-01   1.00800           0
     11628 MEMB     100      SAPE     C38      CTL2    -0.180000       12.0110           0
     11629 MEMB     100      SAPE     H8X      HAL2     0.900000E-01   1.00800           0
     11630 MEMB     100      SAPE     H8Y      HAL2     0.900000E-01   1.00800           0
     11631 MEMB     100      SAPE     C39      CTL2    -0.180000       12.0110           0
     11632 MEMB     100      SAPE     H9X      HAL2     0.900000E-01   1.00800           0
     11633 MEMB     100      SAPE     H9Y      HAL2     0.900000E-01   1.00800           0
     11634 MEMB     100      SAPE     C310     CTL2    -0.180000       12.0110           0
     11635 MEMB     100      SAPE     H10X     HAL2     0.900000E-01   1.00800           0
     11636 MEMB     100      SAPE     H10Y     HAL2     0.900000E-01   1.00800           0
     11637 MEMB     100      SAPE     C311     CTL2    -0.180000       12.0110           0
     11638 MEMB     100      SAPE     H11X     HAL2     0.900000E-01   1.00800           0
     11639 MEMB     100      SAPE     H11Y     HAL2     0.900000E-01   1.00800           0
     11640 MEMB     100      SAPE     C312     CTL2    -0.180000       12.0110           0
     11641 MEMB     100      SAPE     H12X     HAL2     0.900000E-01   1.00800           0
     11642 MEMB     100      SAPE     H12Y     HAL2     0.900000E-01   1.00800           0
     11643 MEMB     100      SAPE     C313     CTL2    -0.180000       12.0110           0
     11644 MEMB     100      SAPE     H13X     HAL2     0.900000E-01   1.00800           0
     11645 MEMB     100      SAPE     H13Y     HAL2     0.900000E-01   1.00800           0
     11646 MEMB     100      SAPE     C314     CTL2    -0.180000       12.0110           0
     11647 MEMB     100      SAPE     H14X     HAL2     0.900000E-01   1.00800           0
     11648 MEMB     100      SAPE     H14Y     HAL2     0.900000E-01   1.00800           0
     11649 MEMB     100      SAPE     C315     CTL2    -0.180000       12.0110           0
     11650 MEMB     100      SAPE     H15X     HAL2     0.900000E-01   1.00800           0
     11651 MEMB     100      SAPE     H15Y     HAL2     0.900000E-01   1.00800           0
     11652 MEMB     100      SAPE     C316     CTL2    -0.180000       12.0110           0
     11653 MEMB     100      SAPE     H16X     HAL2     0.900000E-01   1.00800           0
     11654 MEMB     100      SAPE     H16Y     HAL2     0.900000E-01   1.00800           0
     11655 MEMB     100      SAPE     C317     CTL2    -0.180000       12.0110           0
     11656 MEMB     100      SAPE     H17X     HAL2     0.900000E-01   1.00800           0
     11657 MEMB     100      SAPE     H17Y     HAL2     0.900000E-01   1.00800           0
     11658 MEMB     100      SAPE     C318     CTL3    -0.270000       12.0110           0
     11659 MEMB     100      SAPE     H18X     HAL3     0.900000E-01   1.00800           0
     11660 MEMB     100      SAPE     H18Y     HAL3     0.900000E-01   1.00800           0
     11661 MEMB     100      SAPE     H18Z     HAL3     0.900000E-01   1.00800           0
     11662 MEMB     101      OSM      N        NTL     -0.600000       14.0070           0
     11663 MEMB     101      OSM      C15      CTL5    -0.350000       12.0110           0
     11664 MEMB     101      OSM      H15A     HL       0.250000       1.00800           0
     11665 MEMB     101      OSM      H15B     HL       0.250000       1.00800           0
     11666 MEMB     101      OSM      H15C     HL       0.250000       1.00800           0
     11667 MEMB     101      OSM      C14      CTL5    -0.350000       12.0110           0
     11668 MEMB     101      OSM      H14A     HL       0.250000       1.00800           0
     11669 MEMB     101      OSM      H14B     HL       0.250000       1.00800           0
     11670 MEMB     101      OSM      H14C     HL       0.250000       1.00800           0
     11671 MEMB     101      OSM      C13      CTL5    -0.350000       12.0110           0
     11672 MEMB     101      OSM      H13A     HL       0.250000       1.00800           0
     11673 MEMB     101      OSM      H13B     HL       0.250000       1.00800           0
     11674 MEMB     101      OSM      H13C     HL       0.250000       1.00800           0
     11675 MEMB     101      OSM      C12      CTL2    -0.100000       12.0110           0
     11676 MEMB     101      OSM      H12A     HL       0.250000       1.00800           0
     11677 MEMB     101      OSM      H12B     HL       0.250000       1.00800           0
     11678 MEMB     101      OSM      C11      CTL2    -0.800000E-01   12.0110           0
     11679 MEMB     101      OSM      H11A     HAL2     0.900000E-01   1.00800           0
     11680 MEMB     101      OSM      H11B     HAL2     0.900000E-01   1.00800           0
     11681 MEMB     101      OSM      P        PL        1.50000       30.9740           0
     11682 MEMB     101      OSM      O13      O2L     -0.780000       15.9994           0
     11683 MEMB     101      OSM      O14      O2L     -0.780000       15.9994           0
     11684 MEMB     101      OSM      O11      OSLP    -0.570000       15.9994           0
     11685 MEMB     101      OSM      O12      OSLP    -0.570000       15.9994           0
     11686 MEMB     101      OSM      C1S      CTL2    -0.800000E-01   12.0110           0
     11687 MEMB     101      OSM      H1S      HAL2     0.900000E-01   1.00800           0
     11688 MEMB     101      OSM      H1T      HAL2     0.900000E-01   1.00800           0
     11689 MEMB     101      OSM      NF       NHL     -0.700000       14.0070           0
     11690 MEMB     101      OSM      HNF      H        0.350000       1.00800           0
     11691 MEMB     101      OSM      C2S      CTL1     0.300000       12.0110           0
     11692 MEMB     101      OSM      H2S      HAL1     0.500000E-01   1.00800           0
     11693 MEMB     101      OSM      C3S      CTO1     0.500000       12.0110           0
     11694 MEMB     101      OSM      H3S      HAL1    -0.110000       1.00800           0
     11695 MEMB     101      OSM      O3       OHL     -0.690000       15.9994           0
     11696 MEMB     101      OSM      HO3      HOL      0.300000       1.00800           0
     11697 MEMB     101      OSM      C4S      CEL3    -0.150000       12.0110           0
     11698 MEMB     101      OSM      H4S      HEL1     0.150000       1.00800           0
     11699 MEMB     101      OSM      C5S      CEL3    -0.150000       12.0110           0
     11700 MEMB     101      OSM      H5S      HEL1     0.150000       1.00800           0
     11701 MEMB     101      OSM      C6S      CTL2    -0.180000       12.0110           0
     11702 MEMB     101      OSM      H6S      HAL2     0.900000E-01   1.00800           0
     11703 MEMB     101      OSM      H6T      HAL2     0.900000E-01   1.00800           0
     11704 MEMB     101      OSM      C7S      CTL2    -0.180000       12.0110           0
     11705 MEMB     101      OSM      H7S      HAL2     0.900000E-01   1.00800           0
     11706 MEMB     101      OSM      H7T      HAL2     0.900000E-01   1.00800           0
     11707 MEMB     101      OSM      C8S      CTL2    -0.180000       12.0110           0
     11708 MEMB     101      OSM      H8S      HAL2     0.900000E-01   1.00800           0
     11709 MEMB     101      OSM      H8T      HAL2     0.900000E-01   1.00800           0
     11710 MEMB     101      OSM      C9S      CTL2    -0.180000       12.0110           0
     11711 MEMB     101      OSM      H9S      HAL2     0.900000E-01   1.00800           0
     11712 MEMB     101      OSM      H9T      HAL2     0.900000E-01   1.00800           0
     11713 MEMB     101      OSM      C10S     CTL2    -0.180000       12.0110           0
     11714 MEMB     101      OSM      H10S     HAL2     0.900000E-01   1.00800           0
     11715 MEMB     101      OSM      H10T     HAL2     0.900000E-01   1.00800           0
     11716 MEMB     101      OSM      C11S     CTL2    -0.180000       12.0110           0
     11717 MEMB     101      OSM      H11S     HAL2     0.900000E-01   1.00800           0
     11718 MEMB     101      OSM      H11T     HAL2     0.900000E-01   1.00800           0
     11719 MEMB     101      OSM      C12S     CTL2    -0.180000       12.0110           0
     11720 MEMB     101      OSM      H12S     HAL2     0.900000E-01   1.00800           0
     11721 MEMB     101      OSM      H12T     HAL2     0.900000E-01   1.00800           0
     11722 MEMB     101      OSM      C13S     CTL2    -0.180000       12.0110           0
     11723 MEMB     101      OSM      H13S     HAL2     0.900000E-01   1.00800           0
     11724 MEMB     101      OSM      H13T     HAL2     0.900000E-01   1.00800           0
     11725 MEMB     101      OSM      C14S     CTL2    -0.180000       12.0110           0
     11726 MEMB     101      OSM      H14S     HAL2     0.900000E-01   1.00800           0
     11727 MEMB     101      OSM      H14T     HAL2     0.900000E-01   1.00800           0
     11728 MEMB     101      OSM      C15S     CTL2    -0.180000       12.0110           0
     11729 MEMB     101      OSM      H15S     HAL2     0.900000E-01   1.00800           0
     11730 MEMB     101      OSM      H15T     HAL2     0.900000E-01   1.00800           0
     11731 MEMB     101      OSM      C16S     CTL2    -0.180000       12.0110           0
     11732 MEMB     101      OSM      H16S     HAL2     0.900000E-01   1.00800           0
     11733 MEMB     101      OSM      H16T     HAL2     0.900000E-01   1.00800           0
     11734 MEMB     101      OSM      C17S     CTL2    -0.180000       12.0110           0
     11735 MEMB     101      OSM      H17S     HAL2     0.900000E-01   1.00800           0
     11736 MEMB     101      OSM      H17T     HAL2     0.900000E-01   1.00800           0
     11737 MEMB     101      OSM      C18S     CTL3    -0.270000       12.0110           0
     11738 MEMB     101      OSM      H18S     HAL3     0.900000E-01   1.00800           0
     11739 MEMB     101      OSM      H18T     HAL3     0.900000E-01   1.00800           0
     11740 MEMB     101      OSM      H18U     HAL3     0.900000E-01   1.00800           0
     11741 MEMB     101      OSM      C1F      C        0.550000       12.0110           0
     11742 MEMB     101      OSM      OF       O       -0.600000       15.9994           0
     11743 MEMB     101      OSM      C2F      CTL2    -0.700000E-01   12.0110           0
     11744 MEMB     101      OSM      H2F      HAL2     0.600000E-01   1.00800           0
     11745 MEMB     101      OSM      H2G      HAL2     0.600000E-01   1.00800           0
     11746 MEMB     101      OSM      C3F      CTL2    -0.180000       12.0110           0
     11747 MEMB     101      OSM      H3F      HAL2     0.900000E-01   1.00800           0
     11748 MEMB     101      OSM      H3G      HAL2     0.900000E-01   1.00800           0
     11749 MEMB     101      OSM      C4F      CTL2    -0.180000       12.0110           0
     11750 MEMB     101      OSM      H4F      HAL2     0.900000E-01   1.00800           0
     11751 MEMB     101      OSM      H4G      HAL2     0.900000E-01   1.00800           0
     11752 MEMB     101      OSM      C5F      CTL2    -0.180000       12.0110           0
     11753 MEMB     101      OSM      H5F      HAL2     0.900000E-01   1.00800           0
     11754 MEMB     101      OSM      H5G      HAL2     0.900000E-01   1.00800           0
     11755 MEMB     101      OSM      C6F      CTL2    -0.180000       12.0110           0
     11756 MEMB     101      OSM      H6F      HAL2     0.900000E-01   1.00800           0
     11757 MEMB     101      OSM      H6G      HAL2     0.900000E-01   1.00800           0
     11758 MEMB     101      OSM      C7F      CTL2    -0.180000       12.0110           0
     11759 MEMB     101      OSM      H7F      HAL2     0.900000E-01   1.00800           0
     11760 MEMB     101      OSM      H7G      HAL2     0.900000E-01   1.00800           0
     11761 MEMB     101      OSM      C8F      CTL2    -0.180000       12.0110           0
     11762 MEMB     101      OSM      H8F      HAL2     0.900000E-01   1.00800           0
     11763 MEMB     101      OSM      H8G      HAL2     0.900000E-01   1.00800           0
     11764 MEMB     101      OSM      C9F      CEL1    -0.150000       12.0110           0
     11765 MEMB     101      OSM      H9F      HEL1     0.150000       1.00800           0
     11766 MEMB     101      OSM      C10F     CEL1    -0.150000       12.0110           0
     11767 MEMB     101      OSM      H10F     HEL1     0.150000       1.00800           0
     11768 MEMB     101      OSM      C11F     CTL2    -0.180000       12.0110           0
     11769 MEMB     101      OSM      H11F     HAL2     0.900000E-01   1.00800           0
     11770 MEMB     101      OSM      H11G     HAL2     0.900000E-01   1.00800           0
     11771 MEMB     101      OSM      C12F     CTL2    -0.180000       12.0110           0
     11772 MEMB     101      OSM      H12F     HAL2     0.900000E-01   1.00800           0
     11773 MEMB     101      OSM      H12G     HAL2     0.900000E-01   1.00800           0
     11774 MEMB     101      OSM      C13F     CTL2    -0.180000       12.0110           0
     11775 MEMB     101      OSM      H13F     HAL2     0.900000E-01   1.00800           0
     11776 MEMB     101      OSM      H13G     HAL2     0.900000E-01   1.00800           0
     11777 MEMB     101      OSM      C14F     CTL2    -0.180000       12.0110           0
     11778 MEMB     101      OSM      H14F     HAL2     0.900000E-01   1.00800           0
     11779 MEMB     101      OSM      H14G     HAL2     0.900000E-01   1.00800           0
     11780 MEMB     101      OSM      C15F     CTL2    -0.180000       12.0110           0
     11781 MEMB     101      OSM      H15F     HAL2     0.900000E-01   1.00800           0
     11782 MEMB     101      OSM      H15G     HAL2     0.900000E-01   1.00800           0
     11783 MEMB     101      OSM      C16F     CTL2    -0.180000       12.0110           0
     11784 MEMB     101      OSM      H16F     HAL2     0.900000E-01   1.00800           0
     11785 MEMB     101      OSM      H16G     HAL2     0.900000E-01   1.00800           0
     11786 MEMB     101      OSM      C17F     CTL2    -0.180000       12.0110           0
     11787 MEMB     101      OSM      H17F     HAL2     0.900000E-01   1.00800           0
     11788 MEMB     101      OSM      H17G     HAL2     0.900000E-01   1.00800           0
     11789 MEMB     101      OSM      C18F     CTL3    -0.270000       12.0110           0
     11790 MEMB     101      OSM      H18F     HAL3     0.900000E-01   1.00800           0
     11791 MEMB     101      OSM      H18G     HAL3     0.900000E-01   1.00800           0
     11792 MEMB     101      OSM      H18H     HAL3     0.900000E-01   1.00800           0
     11793 MEMB     102      SAPS     N        NH3L    -0.300000       14.0070           0
     11794 MEMB     102      SAPS     HN1      HCL      0.330000       1.00800           0
     11795 MEMB     102      SAPS     HN2      HCL      0.330000       1.00800           0
     11796 MEMB     102      SAPS     HN3      HCL      0.330000       1.00800           0
     11797 MEMB     102      SAPS     C12      CTL1     0.210000       12.0110           0
     11798 MEMB     102      SAPS     H12A     HBL      0.100000       1.00800           0
     11799 MEMB     102      SAPS     C13      CCL      0.340000       12.0110           0
     11800 MEMB     102      SAPS     O13A     OCL     -0.670000       15.9994           0
     11801 MEMB     102      SAPS     O13B     OCL     -0.670000       15.9994           0
     11802 MEMB     102      SAPS     C11      CTL2    -0.800000E-01   12.0110           0
     11803 MEMB     102      SAPS     H11A     HAL2     0.900000E-01   1.00800           0
     11804 MEMB     102      SAPS     H11B     HAL2     0.900000E-01   1.00800           0
     11805 MEMB     102      SAPS     P        PL        1.50000       30.9740           0
     11806 MEMB     102      SAPS     O13      O2L     -0.780000       15.9994           0
     11807 MEMB     102      SAPS     O14      O2L     -0.780000       15.9994           0
     11808 MEMB     102      SAPS     O12      OSLP    -0.570000       15.9994           0
     11809 MEMB     102      SAPS     O11      OSLP    -0.570000       15.9994           0
     11810 MEMB     102      SAPS     C1       CTL2    -0.800000E-01   12.0110           0
     11811 MEMB     102      SAPS     HA       HAL2     0.900000E-01   1.00800           0
     11812 MEMB     102      SAPS     HB       HAL2     0.900000E-01   1.00800           0
     11813 MEMB     102      SAPS     C2       CTL1     0.170000       12.0110           0
     11814 MEMB     102      SAPS     HS       HAL1     0.900000E-01   1.00800           0
     11815 MEMB     102      SAPS     O21      OSL     -0.490000       15.9994           0
     11816 MEMB     102      SAPS     C21      CL       0.900000       12.0110           0
     11817 MEMB     102      SAPS     O22      OBL     -0.630000       15.9994           0
     11818 MEMB     102      SAPS     C22      CTL2    -0.220000       12.0110           0
     11819 MEMB     102      SAPS     H2R      HAL2     0.900000E-01   1.00800           0
     11820 MEMB     102      SAPS     H2S      HAL2     0.900000E-01   1.00800           0
     11821 MEMB     102      SAPS     C3       CTL2     0.800000E-01   12.0110           0
     11822 MEMB     102      SAPS     HX       HAL2     0.900000E-01   1.00800           0
     11823 MEMB     102      SAPS     HY       HAL2     0.900000E-01   1.00800           0
     11824 MEMB     102      SAPS     O31      OSL     -0.490000       15.9994           0
     11825 MEMB     102      SAPS     C31      CL       0.900000       12.0110           0
     11826 MEMB     102      SAPS     O32      OBL     -0.630000       15.9994           0
     11827 MEMB     102      SAPS     C32      CTL2    -0.220000       12.0110           0
     11828 MEMB     102      SAPS     H2X      HAL2     0.900000E-01   1.00800           0
     11829 MEMB     102      SAPS     H2Y      HAL2     0.900000E-01   1.00800           0
     11830 MEMB     102      SAPS     C23      CTL2    -0.180000       12.0110           0
     11831 MEMB     102      SAPS     H3R      HAL2     0.900000E-01   1.00800           0
     11832 MEMB     102      SAPS     H3S      HAL2     0.900000E-01   1.00800           0
     11833 MEMB     102      SAPS     C24      CTL2    -0.180000       12.0110           0
     11834 MEMB     102      SAPS     H4R      HAL2     0.900000E-01   1.00800           0
     11835 MEMB     102      SAPS     H4S      HAL2     0.900000E-01   1.00800           0
     11836 MEMB     102      SAPS     C25      CEL1    -0.150000       12.0110           0
     11837 MEMB     102      SAPS     H5R      HEL1     0.150000       1.00800           0
     11838 MEMB     102      SAPS     C26      CEL1    -0.150000       12.0110           0
     11839 MEMB     102      SAPS     H6R      HEL1     0.150000       1.00800           0
     11840 MEMB     102      SAPS     C27      CTL2    -0.180000       12.0110           0
     11841 MEMB     102      SAPS     H7R      HAL2     0.900000E-01   1.00800           0
     11842 MEMB     102      SAPS     H7S      HAL2     0.900000E-01   1.00800           0
     11843 MEMB     102      SAPS     C28      CEL1    -0.150000       12.0110           0
     11844 MEMB     102      SAPS     H8R      HEL1     0.150000       1.00800           0
     11845 MEMB     102      SAPS     C29      CEL1    -0.150000       12.0110           0
     11846 MEMB     102      SAPS     H9R      HEL1     0.150000       1.00800           0
     11847 MEMB     102      SAPS     C210     CTL2    -0.180000       12.0110           0
     11848 MEMB     102      SAPS     H10R     HAL2     0.900000E-01   1.00800           0
     11849 MEMB     102      SAPS     H10S     HAL2     0.900000E-01   1.00800           0
     11850 MEMB     102      SAPS     C211     CEL1    -0.150000       12.0110           0
     11851 MEMB     102      SAPS     H11R     HEL1     0.150000       1.00800           0
     11852 MEMB     102      SAPS     C212     CEL1    -0.150000       12.0110           0
     11853 MEMB     102      SAPS     H12R     HEL1     0.150000       1.00800           0
     11854 MEMB     102      SAPS     C213     CTL2    -0.180000       12.0110           0
     11855 MEMB     102      SAPS     H13R     HAL2     0.900000E-01   1.00800           0
     11856 MEMB     102      SAPS     H13S     HAL2     0.900000E-01   1.00800           0
     11857 MEMB     102      SAPS     C214     CEL1    -0.150000       12.0110           0
     11858 MEMB     102      SAPS     H14R     HEL1     0.150000       1.00800           0
     11859 MEMB     102      SAPS     C215     CEL1    -0.150000       12.0110           0
     11860 MEMB     102      SAPS     H15R     HEL1     0.150000       1.00800           0
     11861 MEMB     102      SAPS     C216     CTL2    -0.180000       12.0110           0
     11862 MEMB     102      SAPS     H16R     HAL2     0.900000E-01   1.00800           0
     11863 MEMB     102      SAPS     H16S     HAL2     0.900000E-01   1.00800           0
     11864 MEMB     102      SAPS     C217     CTL2    -0.180000       12.0110           0
     11865 MEMB     102      SAPS     H17R     HAL2     0.900000E-01   1.00800           0
     11866 MEMB     102      SAPS     H17S     HAL2     0.900000E-01   1.00800           0
     11867 MEMB     102      SAPS     C218     CTL2    -0.180000       12.0110           0
     11868 MEMB     102      SAPS     H18R     HAL2     0.900000E-01   1.00800           0
     11869 MEMB     102      SAPS     H18S     HAL2     0.900000E-01   1.00800           0
     11870 MEMB     102      SAPS     C219     CTL2    -0.180000       12.0110           0
     11871 MEMB     102      SAPS     H19R     HAL2     0.900000E-01   1.00800           0
     11872 MEMB     102      SAPS     H19S     HAL2     0.900000E-01   1.00800           0
     11873 MEMB     102      SAPS     C220     CTL3    -0.270000       12.0110           0
     11874 MEMB     102      SAPS     H20R     HAL3     0.900000E-01   1.00800           0
     11875 MEMB     102      SAPS     H20S     HAL3     0.900000E-01   1.00800           0
     11876 MEMB     102      SAPS     H20T     HAL3     0.900000E-01   1.00800           0
     11877 MEMB     102      SAPS     C33      CTL2    -0.180000       12.0110           0
     11878 MEMB     102      SAPS     H3X      HAL2     0.900000E-01   1.00800           0
     11879 MEMB     102      SAPS     H3Y      HAL2     0.900000E-01   1.00800           0
     11880 MEMB     102      SAPS     C34      CTL2    -0.180000       12.0110           0
     11881 MEMB     102      SAPS     H4X      HAL2     0.900000E-01   1.00800           0
     11882 MEMB     102      SAPS     H4Y      HAL2     0.900000E-01   1.00800           0
     11883 MEMB     102      SAPS     C35      CTL2    -0.180000       12.0110           0
     11884 MEMB     102      SAPS     H5X      HAL2     0.900000E-01   1.00800           0
     11885 MEMB     102      SAPS     H5Y      HAL2     0.900000E-01   1.00800           0
     11886 MEMB     102      SAPS     C36      CTL2    -0.180000       12.0110           0
     11887 MEMB     102      SAPS     H6X      HAL2     0.900000E-01   1.00800           0
     11888 MEMB     102      SAPS     H6Y      HAL2     0.900000E-01   1.00800           0
     11889 MEMB     102      SAPS     C37      CTL2    -0.180000       12.0110           0
     11890 MEMB     102      SAPS     H7X      HAL2     0.900000E-01   1.00800           0
     11891 MEMB     102      SAPS     H7Y      HAL2     0.900000E-01   1.00800           0
     11892 MEMB     102      SAPS     C38      CTL2    -0.180000       12.0110           0
     11893 MEMB     102      SAPS     H8X      HAL2     0.900000E-01   1.00800           0
     11894 MEMB     102      SAPS     H8Y      HAL2     0.900000E-01   1.00800           0
     11895 MEMB     102      SAPS     C39      CTL2    -0.180000       12.0110           0
     11896 MEMB     102      SAPS     H9X      HAL2     0.900000E-01   1.00800           0
     11897 MEMB     102      SAPS     H9Y      HAL2     0.900000E-01   1.00800           0
     11898 MEMB     102      SAPS     C310     CTL2    -0.180000       12.0110           0
     11899 MEMB     102      SAPS     H10X     HAL2     0.900000E-01   1.00800           0
     11900 MEMB     102      SAPS     H10Y     HAL2     0.900000E-01   1.00800           0
     11901 MEMB     102      SAPS     C311     CTL2    -0.180000       12.0110           0
     11902 MEMB     102      SAPS     H11X     HAL2     0.900000E-01   1.00800           0
     11903 MEMB     102      SAPS     H11Y     HAL2     0.900000E-01   1.00800           0
     11904 MEMB     102      SAPS     C312     CTL2    -0.180000       12.0110           0
     11905 MEMB     102      SAPS     H12X     HAL2     0.900000E-01   1.00800           0
     11906 MEMB     102      SAPS     H12Y     HAL2     0.900000E-01   1.00800           0
     11907 MEMB     102      SAPS     C313     CTL2    -0.180000       12.0110           0
     11908 MEMB     102      SAPS     H13X     HAL2     0.900000E-01   1.00800           0
     11909 MEMB     102      SAPS     H13Y     HAL2     0.900000E-01   1.00800           0
     11910 MEMB     102      SAPS     C314     CTL2    -0.180000       12.0110           0
     11911 MEMB     102      SAPS     H14X     HAL2     0.900000E-01   1.00800           0
     11912 MEMB     102      SAPS     H14Y     HAL2     0.900000E-01   1.00800           0
     11913 MEMB     102      SAPS     C315     CTL2    -0.180000       12.0110           0
     11914 MEMB     102      SAPS     H15X     HAL2     0.900000E-01   1.00800           0
     11915 MEMB     102      SAPS     H15Y     HAL2     0.900000E-01   1.00800           0
     11916 MEMB     102      SAPS     C316     CTL2    -0.180000       12.0110           0
     11917 MEMB     102      SAPS     H16X     HAL2     0.900000E-01   1.00800           0
     11918 MEMB     102      SAPS     H16Y     HAL2     0.900000E-01   1.00800           0
     11919 MEMB     102      SAPS     C317     CTL2    -0.180000       12.0110           0
     11920 MEMB     102      SAPS     H17X     HAL2     0.900000E-01   1.00800           0
     11921 MEMB     102      SAPS     H17Y     HAL2     0.900000E-01   1.00800           0
     11922 MEMB     102      SAPS     C318     CTL3    -0.270000       12.0110           0
     11923 MEMB     102      SAPS     H18X     HAL3     0.900000E-01   1.00800           0
     11924 MEMB     102      SAPS     H18Y     HAL3     0.900000E-01   1.00800           0
     11925 MEMB     102      SAPS     H18Z     HAL3     0.900000E-01   1.00800           0
     11926 MEMB     103      POPC     N        NTL     -0.600000       14.0070           0
     11927 MEMB     103      POPC     C12      CTL2    -0.100000       12.0110           0
     11928 MEMB     103      POPC     H12A     HL       0.250000       1.00800           0
     11929 MEMB     103      POPC     H12B     HL       0.250000       1.00800           0
     11930 MEMB     103      POPC     C13      CTL5    -0.350000       12.0110           0
     11931 MEMB     103      POPC     H13A     HL       0.250000       1.00800           0
     11932 MEMB     103      POPC     H13B     HL       0.250000       1.00800           0
     11933 MEMB     103      POPC     H13C     HL       0.250000       1.00800           0
     11934 MEMB     103      POPC     C14      CTL5    -0.350000       12.0110           0
     11935 MEMB     103      POPC     H14A     HL       0.250000       1.00800           0
     11936 MEMB     103      POPC     H14B     HL       0.250000       1.00800           0
     11937 MEMB     103      POPC     H14C     HL       0.250000       1.00800           0
     11938 MEMB     103      POPC     C15      CTL5    -0.350000       12.0110           0
     11939 MEMB     103      POPC     H15A     HL       0.250000       1.00800           0
     11940 MEMB     103      POPC     H15B     HL       0.250000       1.00800           0
     11941 MEMB     103      POPC     H15C     HL       0.250000       1.00800           0
     11942 MEMB     103      POPC     C11      CTL2    -0.800000E-01   12.0110           0
     11943 MEMB     103      POPC     H11A     HAL2     0.900000E-01   1.00800           0
     11944 MEMB     103      POPC     H11B     HAL2     0.900000E-01   1.00800           0
     11945 MEMB     103      POPC     P        PL        1.50000       30.9740           0
     11946 MEMB     103      POPC     O13      O2L     -0.780000       15.9994           0
     11947 MEMB     103      POPC     O14      O2L     -0.780000       15.9994           0
     11948 MEMB     103      POPC     O12      OSLP    -0.570000       15.9994           0
     11949 MEMB     103      POPC     O11      OSLP    -0.570000       15.9994           0
     11950 MEMB     103      POPC     C1       CTL2    -0.800000E-01   12.0110           0
     11951 MEMB     103      POPC     HA       HAL2     0.900000E-01   1.00800           0
     11952 MEMB     103      POPC     HB       HAL2     0.900000E-01   1.00800           0
     11953 MEMB     103      POPC     C2       CTL1     0.170000       12.0110           0
     11954 MEMB     103      POPC     HS       HAL1     0.900000E-01   1.00800           0
     11955 MEMB     103      POPC     O21      OSL     -0.490000       15.9994           0
     11956 MEMB     103      POPC     C21      CL       0.900000       12.0110           0
     11957 MEMB     103      POPC     O22      OBL     -0.630000       15.9994           0
     11958 MEMB     103      POPC     C22      CTL2    -0.220000       12.0110           0
     11959 MEMB     103      POPC     H2R      HAL2     0.900000E-01   1.00800           0
     11960 MEMB     103      POPC     H2S      HAL2     0.900000E-01   1.00800           0
     11961 MEMB     103      POPC     C3       CTL2     0.800000E-01   12.0110           0
     11962 MEMB     103      POPC     HX       HAL2     0.900000E-01   1.00800           0
     11963 MEMB     103      POPC     HY       HAL2     0.900000E-01   1.00800           0
     11964 MEMB     103      POPC     O31      OSL     -0.490000       15.9994           0
     11965 MEMB     103      POPC     C31      CL       0.900000       12.0110           0
     11966 MEMB     103      POPC     O32      OBL     -0.630000       15.9994           0
     11967 MEMB     103      POPC     C32      CTL2    -0.220000       12.0110           0
     11968 MEMB     103      POPC     H2X      HAL2     0.900000E-01   1.00800           0
     11969 MEMB     103      POPC     H2Y      HAL2     0.900000E-01   1.00800           0
     11970 MEMB     103      POPC     C23      CTL2    -0.180000       12.0110           0
     11971 MEMB     103      POPC     H3R      HAL2     0.900000E-01   1.00800           0
     11972 MEMB     103      POPC     H3S      HAL2     0.900000E-01   1.00800           0
     11973 MEMB     103      POPC     C24      CTL2    -0.180000       12.0110           0
     11974 MEMB     103      POPC     H4R      HAL2     0.900000E-01   1.00800           0
     11975 MEMB     103      POPC     H4S      HAL2     0.900000E-01   1.00800           0
     11976 MEMB     103      POPC     C25      CTL2    -0.180000       12.0110           0
     11977 MEMB     103      POPC     H5R      HAL2     0.900000E-01   1.00800           0
     11978 MEMB     103      POPC     H5S      HAL2     0.900000E-01   1.00800           0
     11979 MEMB     103      POPC     C26      CTL2    -0.180000       12.0110           0
     11980 MEMB     103      POPC     H6R      HAL2     0.900000E-01   1.00800           0
     11981 MEMB     103      POPC     H6S      HAL2     0.900000E-01   1.00800           0
     11982 MEMB     103      POPC     C27      CTL2    -0.180000       12.0110           0
     11983 MEMB     103      POPC     H7R      HAL2     0.900000E-01   1.00800           0
     11984 MEMB     103      POPC     H7S      HAL2     0.900000E-01   1.00800           0
     11985 MEMB     103      POPC     C28      CTL2    -0.180000       12.0110           0
     11986 MEMB     103      POPC     H8R      HAL2     0.900000E-01   1.00800           0
     11987 MEMB     103      POPC     H8S      HAL2     0.900000E-01   1.00800           0
     11988 MEMB     103      POPC     C29      CEL1    -0.150000       12.0110           0
     11989 MEMB     103      POPC     H91      HEL1     0.150000       1.00800           0
     11990 MEMB     103      POPC     C210     CEL1    -0.150000       12.0110           0
     11991 MEMB     103      POPC     H101     HEL1     0.150000       1.00800           0
     11992 MEMB     103      POPC     C211     CTL2    -0.180000       12.0110           0
     11993 MEMB     103      POPC     H11R     HAL2     0.900000E-01   1.00800           0
     11994 MEMB     103      POPC     H11S     HAL2     0.900000E-01   1.00800           0
     11995 MEMB     103      POPC     C212     CTL2    -0.180000       12.0110           0
     11996 MEMB     103      POPC     H12R     HAL2     0.900000E-01   1.00800           0
     11997 MEMB     103      POPC     H12S     HAL2     0.900000E-01   1.00800           0
     11998 MEMB     103      POPC     C213     CTL2    -0.180000       12.0110           0
     11999 MEMB     103      POPC     H13R     HAL2     0.900000E-01   1.00800           0
     12000 MEMB     103      POPC     H13S     HAL2     0.900000E-01   1.00800           0
     12001 MEMB     103      POPC     C214     CTL2    -0.180000       12.0110           0
     12002 MEMB     103      POPC     H14R     HAL2     0.900000E-01   1.00800           0
     12003 MEMB     103      POPC     H14S     HAL2     0.900000E-01   1.00800           0
     12004 MEMB     103      POPC     C215     CTL2    -0.180000       12.0110           0
     12005 MEMB     103      POPC     H15R     HAL2     0.900000E-01   1.00800           0
     12006 MEMB     103      POPC     H15S     HAL2     0.900000E-01   1.00800           0
     12007 MEMB     103      POPC     C216     CTL2    -0.180000       12.0110           0
     12008 MEMB     103      POPC     H16R     HAL2     0.900000E-01   1.00800           0
     12009 MEMB     103      POPC     H16S     HAL2     0.900000E-01   1.00800           0
     12010 MEMB     103      POPC     C217     CTL2    -0.180000       12.0110           0
     12011 MEMB     103      POPC     H17R     HAL2     0.900000E-01   1.00800           0
     12012 MEMB     103      POPC     H17S     HAL2     0.900000E-01   1.00800           0
     12013 MEMB     103      POPC     C218     CTL3    -0.270000       12.0110           0
     12014 MEMB     103      POPC     H18R     HAL3     0.900000E-01   1.00800           0
     12015 MEMB     103      POPC     H18S     HAL3     0.900000E-01   1.00800           0
     12016 MEMB     103      POPC     H18T     HAL3     0.900000E-01   1.00800           0
     12017 MEMB     103      POPC     C33      CTL2    -0.180000       12.0110           0
     12018 MEMB     103      POPC     H3X      HAL2     0.900000E-01   1.00800           0
     12019 MEMB     103      POPC     H3Y      HAL2     0.900000E-01   1.00800           0
     12020 MEMB     103      POPC     C34      CTL2    -0.180000       12.0110           0
     12021 MEMB     103      POPC     H4X      HAL2     0.900000E-01   1.00800           0
     12022 MEMB     103      POPC     H4Y      HAL2     0.900000E-01   1.00800           0
     12023 MEMB     103      POPC     C35      CTL2    -0.180000       12.0110           0
     12024 MEMB     103      POPC     H5X      HAL2     0.900000E-01   1.00800           0
     12025 MEMB     103      POPC     H5Y      HAL2     0.900000E-01   1.00800           0
     12026 MEMB     103      POPC     C36      CTL2    -0.180000       12.0110           0
     12027 MEMB     103      POPC     H6X      HAL2     0.900000E-01   1.00800           0
     12028 MEMB     103      POPC     H6Y      HAL2     0.900000E-01   1.00800           0
     12029 MEMB     103      POPC     C37      CTL2    -0.180000       12.0110           0
     12030 MEMB     103      POPC     H7X      HAL2     0.900000E-01   1.00800           0
     12031 MEMB     103      POPC     H7Y      HAL2     0.900000E-01   1.00800           0
     12032 MEMB     103      POPC     C38      CTL2    -0.180000       12.0110           0
     12033 MEMB     103      POPC     H8X      HAL2     0.900000E-01   1.00800           0
     12034 MEMB     103      POPC     H8Y      HAL2     0.900000E-01   1.00800           0
     12035 MEMB     103      POPC     C39      CTL2    -0.180000       12.0110           0
     12036 MEMB     103      POPC     H9X      HAL2     0.900000E-01   1.00800           0
     12037 MEMB     103      POPC     H9Y      HAL2     0.900000E-01   1.00800           0
     12038 MEMB     103      POPC     C310     CTL2    -0.180000       12.0110           0
     12039 MEMB     103      POPC     H10X     HAL2     0.900000E-01   1.00800           0
     12040 MEMB     103      POPC     H10Y     HAL2     0.900000E-01   1.00800           0
     12041 MEMB     103      POPC     C311     CTL2    -0.180000       12.0110           0
     12042 MEMB     103      POPC     H11X     HAL2     0.900000E-01   1.00800           0
     12043 MEMB     103      POPC     H11Y     HAL2     0.900000E-01   1.00800           0
     12044 MEMB     103      POPC     C312     CTL2    -0.180000       12.0110           0
     12045 MEMB     103      POPC     H12X     HAL2     0.900000E-01   1.00800           0
     12046 MEMB     103      POPC     H12Y     HAL2     0.900000E-01   1.00800           0
     12047 MEMB     103      POPC     C313     CTL2    -0.180000       12.0110           0
     12048 MEMB     103      POPC     H13X     HAL2     0.900000E-01   1.00800           0
     12049 MEMB     103      POPC     H13Y     HAL2     0.900000E-01   1.00800           0
     12050 MEMB     103      POPC     C314     CTL2    -0.180000       12.0110           0
     12051 MEMB     103      POPC     H14X     HAL2     0.900000E-01   1.00800           0
     12052 MEMB     103      POPC     H14Y     HAL2     0.900000E-01   1.00800           0
     12053 MEMB     103      POPC     C315     CTL2    -0.180000       12.0110           0
     12054 MEMB     103      POPC     H15X     HAL2     0.900000E-01   1.00800           0
     12055 MEMB     103      POPC     H15Y     HAL2     0.900000E-01   1.00800           0
     12056 MEMB     103      POPC     C316     CTL3    -0.270000       12.0110           0
     12057 MEMB     103      POPC     H16X     HAL3     0.900000E-01   1.00800           0
     12058 MEMB     103      POPC     H16Y     HAL3     0.900000E-01   1.00800           0
     12059 MEMB     103      POPC     H16Z     HAL3     0.900000E-01   1.00800           0
     12060 MEMB     104      SAPE     N        NH3L    -0.300000       14.0070           0
     12061 MEMB     104      SAPE     HN1      HCL      0.330000       1.00800           0
     12062 MEMB     104      SAPE     HN2      HCL      0.330000       1.00800           0
     12063 MEMB     104      SAPE     HN3      HCL      0.330000       1.00800           0
     12064 MEMB     104      SAPE     C12      CTL2     0.130000       12.0110           0
     12065 MEMB     104      SAPE     H12A     HAL2     0.900000E-01   1.00800           0
     12066 MEMB     104      SAPE     H12B     HAL2     0.900000E-01   1.00800           0
     12067 MEMB     104      SAPE     C11      CTL2    -0.800000E-01   12.0110           0
     12068 MEMB     104      SAPE     H11A     HAL2     0.900000E-01   1.00800           0
     12069 MEMB     104      SAPE     H11B     HAL2     0.900000E-01   1.00800           0
     12070 MEMB     104      SAPE     P        PL        1.50000       30.9740           0
     12071 MEMB     104      SAPE     O13      O2L     -0.780000       15.9994           0
     12072 MEMB     104      SAPE     O14      O2L     -0.780000       15.9994           0
     12073 MEMB     104      SAPE     O12      OSLP    -0.570000       15.9994           0
     12074 MEMB     104      SAPE     O11      OSLP    -0.570000       15.9994           0
     12075 MEMB     104      SAPE     C1       CTL2    -0.800000E-01   12.0110           0
     12076 MEMB     104      SAPE     HA       HAL2     0.900000E-01   1.00800           0
     12077 MEMB     104      SAPE     HB       HAL2     0.900000E-01   1.00800           0
     12078 MEMB     104      SAPE     C2       CTL1     0.170000       12.0110           0
     12079 MEMB     104      SAPE     HS       HAL1     0.900000E-01   1.00800           0
     12080 MEMB     104      SAPE     O21      OSL     -0.490000       15.9994           0
     12081 MEMB     104      SAPE     C21      CL       0.900000       12.0110           0
     12082 MEMB     104      SAPE     O22      OBL     -0.630000       15.9994           0
     12083 MEMB     104      SAPE     C22      CTL2    -0.220000       12.0110           0
     12084 MEMB     104      SAPE     H2R      HAL2     0.900000E-01   1.00800           0
     12085 MEMB     104      SAPE     H2S      HAL2     0.900000E-01   1.00800           0
     12086 MEMB     104      SAPE     C3       CTL2     0.800000E-01   12.0110           0
     12087 MEMB     104      SAPE     HX       HAL2     0.900000E-01   1.00800           0
     12088 MEMB     104      SAPE     HY       HAL2     0.900000E-01   1.00800           0
     12089 MEMB     104      SAPE     O31      OSL     -0.490000       15.9994           0
     12090 MEMB     104      SAPE     C31      CL       0.900000       12.0110           0
     12091 MEMB     104      SAPE     O32      OBL     -0.630000       15.9994           0
     12092 MEMB     104      SAPE     C32      CTL2    -0.220000       12.0110           0
     12093 MEMB     104      SAPE     H2X      HAL2     0.900000E-01   1.00800           0
     12094 MEMB     104      SAPE     H2Y      HAL2     0.900000E-01   1.00800           0
     12095 MEMB     104      SAPE     C23      CTL2    -0.180000       12.0110           0
     12096 MEMB     104      SAPE     H3R      HAL2     0.900000E-01   1.00800           0
     12097 MEMB     104      SAPE     H3S      HAL2     0.900000E-01   1.00800           0
     12098 MEMB     104      SAPE     C24      CTL2    -0.180000       12.0110           0
     12099 MEMB     104      SAPE     H4R      HAL2     0.900000E-01   1.00800           0
     12100 MEMB     104      SAPE     H4S      HAL2     0.900000E-01   1.00800           0
     12101 MEMB     104      SAPE     C25      CEL1    -0.150000       12.0110           0
     12102 MEMB     104      SAPE     H5R      HEL1     0.150000       1.00800           0
     12103 MEMB     104      SAPE     C26      CEL1    -0.150000       12.0110           0
     12104 MEMB     104      SAPE     H6R      HEL1     0.150000       1.00800           0
     12105 MEMB     104      SAPE     C27      CTL2    -0.180000       12.0110           0
     12106 MEMB     104      SAPE     H7R      HAL2     0.900000E-01   1.00800           0
     12107 MEMB     104      SAPE     H7S      HAL2     0.900000E-01   1.00800           0
     12108 MEMB     104      SAPE     C28      CEL1    -0.150000       12.0110           0
     12109 MEMB     104      SAPE     H8R      HEL1     0.150000       1.00800           0
     12110 MEMB     104      SAPE     C29      CEL1    -0.150000       12.0110           0
     12111 MEMB     104      SAPE     H9R      HEL1     0.150000       1.00800           0
     12112 MEMB     104      SAPE     C210     CTL2    -0.180000       12.0110           0
     12113 MEMB     104      SAPE     H10R     HAL2     0.900000E-01   1.00800           0
     12114 MEMB     104      SAPE     H10S     HAL2     0.900000E-01   1.00800           0
     12115 MEMB     104      SAPE     C211     CEL1    -0.150000       12.0110           0
     12116 MEMB     104      SAPE     H11R     HEL1     0.150000       1.00800           0
     12117 MEMB     104      SAPE     C212     CEL1    -0.150000       12.0110           0
     12118 MEMB     104      SAPE     H12R     HEL1     0.150000       1.00800           0
     12119 MEMB     104      SAPE     C213     CTL2    -0.180000       12.0110           0
     12120 MEMB     104      SAPE     H13R     HAL2     0.900000E-01   1.00800           0
     12121 MEMB     104      SAPE     H13S     HAL2     0.900000E-01   1.00800           0
     12122 MEMB     104      SAPE     C214     CEL1    -0.150000       12.0110           0
     12123 MEMB     104      SAPE     H14R     HEL1     0.150000       1.00800           0
     12124 MEMB     104      SAPE     C215     CEL1    -0.150000       12.0110           0
     12125 MEMB     104      SAPE     H15R     HEL1     0.150000       1.00800           0
     12126 MEMB     104      SAPE     C216     CTL2    -0.180000       12.0110           0
     12127 MEMB     104      SAPE     H16R     HAL2     0.900000E-01   1.00800           0
     12128 MEMB     104      SAPE     H16S     HAL2     0.900000E-01   1.00800           0
     12129 MEMB     104      SAPE     C217     CTL2    -0.180000       12.0110           0
     12130 MEMB     104      SAPE     H17R     HAL2     0.900000E-01   1.00800           0
     12131 MEMB     104      SAPE     H17S     HAL2     0.900000E-01   1.00800           0
     12132 MEMB     104      SAPE     C218     CTL2    -0.180000       12.0110           0
     12133 MEMB     104      SAPE     H18R     HAL2     0.900000E-01   1.00800           0
     12134 MEMB     104      SAPE     H18S     HAL2     0.900000E-01   1.00800           0
     12135 MEMB     104      SAPE     C219     CTL2    -0.180000       12.0110           0
     12136 MEMB     104      SAPE     H19R     HAL2     0.900000E-01   1.00800           0
     12137 MEMB     104      SAPE     H19S     HAL2     0.900000E-01   1.00800           0
     12138 MEMB     104      SAPE     C220     CTL3    -0.270000       12.0110           0
     12139 MEMB     104      SAPE     H20R     HAL3     0.900000E-01   1.00800           0
     12140 MEMB     104      SAPE     H20S     HAL3     0.900000E-01   1.00800           0
     12141 MEMB     104      SAPE     H20T     HAL3     0.900000E-01   1.00800           0
     12142 MEMB     104      SAPE     C33      CTL2    -0.180000       12.0110           0
     12143 MEMB     104      SAPE     H3X      HAL2     0.900000E-01   1.00800           0
     12144 MEMB     104      SAPE     H3Y      HAL2     0.900000E-01   1.00800           0
     12145 MEMB     104      SAPE     C34      CTL2    -0.180000       12.0110           0
     12146 MEMB     104      SAPE     H4X      HAL2     0.900000E-01   1.00800           0
     12147 MEMB     104      SAPE     H4Y      HAL2     0.900000E-01   1.00800           0
     12148 MEMB     104      SAPE     C35      CTL2    -0.180000       12.0110           0
     12149 MEMB     104      SAPE     H5X      HAL2     0.900000E-01   1.00800           0
     12150 MEMB     104      SAPE     H5Y      HAL2     0.900000E-01   1.00800           0
     12151 MEMB     104      SAPE     C36      CTL2    -0.180000       12.0110           0
     12152 MEMB     104      SAPE     H6X      HAL2     0.900000E-01   1.00800           0
     12153 MEMB     104      SAPE     H6Y      HAL2     0.900000E-01   1.00800           0
     12154 MEMB     104      SAPE     C37      CTL2    -0.180000       12.0110           0
     12155 MEMB     104      SAPE     H7X      HAL2     0.900000E-01   1.00800           0
     12156 MEMB     104      SAPE     H7Y      HAL2     0.900000E-01   1.00800           0
     12157 MEMB     104      SAPE     C38      CTL2    -0.180000       12.0110           0
     12158 MEMB     104      SAPE     H8X      HAL2     0.900000E-01   1.00800           0
     12159 MEMB     104      SAPE     H8Y      HAL2     0.900000E-01   1.00800           0
     12160 MEMB     104      SAPE     C39      CTL2    -0.180000       12.0110           0
     12161 MEMB     104      SAPE     H9X      HAL2     0.900000E-01   1.00800           0
     12162 MEMB     104      SAPE     H9Y      HAL2     0.900000E-01   1.00800           0
     12163 MEMB     104      SAPE     C310     CTL2    -0.180000       12.0110           0
     12164 MEMB     104      SAPE     H10X     HAL2     0.900000E-01   1.00800           0
     12165 MEMB     104      SAPE     H10Y     HAL2     0.900000E-01   1.00800           0
     12166 MEMB     104      SAPE     C311     CTL2    -0.180000       12.0110           0
     12167 MEMB     104      SAPE     H11X     HAL2     0.900000E-01   1.00800           0
     12168 MEMB     104      SAPE     H11Y     HAL2     0.900000E-01   1.00800           0
     12169 MEMB     104      SAPE     C312     CTL2    -0.180000       12.0110           0
     12170 MEMB     104      SAPE     H12X     HAL2     0.900000E-01   1.00800           0
     12171 MEMB     104      SAPE     H12Y     HAL2     0.900000E-01   1.00800           0
     12172 MEMB     104      SAPE     C313     CTL2    -0.180000       12.0110           0
     12173 MEMB     104      SAPE     H13X     HAL2     0.900000E-01   1.00800           0
     12174 MEMB     104      SAPE     H13Y     HAL2     0.900000E-01   1.00800           0
     12175 MEMB     104      SAPE     C314     CTL2    -0.180000       12.0110           0
     12176 MEMB     104      SAPE     H14X     HAL2     0.900000E-01   1.00800           0
     12177 MEMB     104      SAPE     H14Y     HAL2     0.900000E-01   1.00800           0
     12178 MEMB     104      SAPE     C315     CTL2    -0.180000       12.0110           0
     12179 MEMB     104      SAPE     H15X     HAL2     0.900000E-01   1.00800           0
     12180 MEMB     104      SAPE     H15Y     HAL2     0.900000E-01   1.00800           0
     12181 MEMB     104      SAPE     C316     CTL2    -0.180000       12.0110           0
     12182 MEMB     104      SAPE     H16X     HAL2     0.900000E-01   1.00800           0
     12183 MEMB     104      SAPE     H16Y     HAL2     0.900000E-01   1.00800           0
     12184 MEMB     104      SAPE     C317     CTL2    -0.180000       12.0110           0
     12185 MEMB     104      SAPE     H17X     HAL2     0.900000E-01   1.00800           0
     12186 MEMB     104      SAPE     H17Y     HAL2     0.900000E-01   1.00800           0
     12187 MEMB     104      SAPE     C318     CTL3    -0.270000       12.0110           0
     12188 MEMB     104      SAPE     H18X     HAL3     0.900000E-01   1.00800           0
     12189 MEMB     104      SAPE     H18Y     HAL3     0.900000E-01   1.00800           0
     12190 MEMB     104      SAPE     H18Z     HAL3     0.900000E-01   1.00800           0
     12191 MEMB     105      SAPS     N        NH3L    -0.300000       14.0070           0
     12192 MEMB     105      SAPS     HN1      HCL      0.330000       1.00800           0
     12193 MEMB     105      SAPS     HN2      HCL      0.330000       1.00800           0
     12194 MEMB     105      SAPS     HN3      HCL      0.330000       1.00800           0
     12195 MEMB     105      SAPS     C12      CTL1     0.210000       12.0110           0
     12196 MEMB     105      SAPS     H12A     HBL      0.100000       1.00800           0
     12197 MEMB     105      SAPS     C13      CCL      0.340000       12.0110           0
     12198 MEMB     105      SAPS     O13A     OCL     -0.670000       15.9994           0
     12199 MEMB     105      SAPS     O13B     OCL     -0.670000       15.9994           0
     12200 MEMB     105      SAPS     C11      CTL2    -0.800000E-01   12.0110           0
     12201 MEMB     105      SAPS     H11A     HAL2     0.900000E-01   1.00800           0
     12202 MEMB     105      SAPS     H11B     HAL2     0.900000E-01   1.00800           0
     12203 MEMB     105      SAPS     P        PL        1.50000       30.9740           0
     12204 MEMB     105      SAPS     O13      O2L     -0.780000       15.9994           0
     12205 MEMB     105      SAPS     O14      O2L     -0.780000       15.9994           0
     12206 MEMB     105      SAPS     O12      OSLP    -0.570000       15.9994           0
     12207 MEMB     105      SAPS     O11      OSLP    -0.570000       15.9994           0
     12208 MEMB     105      SAPS     C1       CTL2    -0.800000E-01   12.0110           0
     12209 MEMB     105      SAPS     HA       HAL2     0.900000E-01   1.00800           0
     12210 MEMB     105      SAPS     HB       HAL2     0.900000E-01   1.00800           0
     12211 MEMB     105      SAPS     C2       CTL1     0.170000       12.0110           0
     12212 MEMB     105      SAPS     HS       HAL1     0.900000E-01   1.00800           0
     12213 MEMB     105      SAPS     O21      OSL     -0.490000       15.9994           0
     12214 MEMB     105      SAPS     C21      CL       0.900000       12.0110           0
     12215 MEMB     105      SAPS     O22      OBL     -0.630000       15.9994           0
     12216 MEMB     105      SAPS     C22      CTL2    -0.220000       12.0110           0
     12217 MEMB     105      SAPS     H2R      HAL2     0.900000E-01   1.00800           0
     12218 MEMB     105      SAPS     H2S      HAL2     0.900000E-01   1.00800           0
     12219 MEMB     105      SAPS     C3       CTL2     0.800000E-01   12.0110           0
     12220 MEMB     105      SAPS     HX       HAL2     0.900000E-01   1.00800           0
     12221 MEMB     105      SAPS     HY       HAL2     0.900000E-01   1.00800           0
     12222 MEMB     105      SAPS     O31      OSL     -0.490000       15.9994           0
     12223 MEMB     105      SAPS     C31      CL       0.900000       12.0110           0
     12224 MEMB     105      SAPS     O32      OBL     -0.630000       15.9994           0
     12225 MEMB     105      SAPS     C32      CTL2    -0.220000       12.0110           0
     12226 MEMB     105      SAPS     H2X      HAL2     0.900000E-01   1.00800           0
     12227 MEMB     105      SAPS     H2Y      HAL2     0.900000E-01   1.00800           0
     12228 MEMB     105      SAPS     C23      CTL2    -0.180000       12.0110           0
     12229 MEMB     105      SAPS     H3R      HAL2     0.900000E-01   1.00800           0
     12230 MEMB     105      SAPS     H3S      HAL2     0.900000E-01   1.00800           0
     12231 MEMB     105      SAPS     C24      CTL2    -0.180000       12.0110           0
     12232 MEMB     105      SAPS     H4R      HAL2     0.900000E-01   1.00800           0
     12233 MEMB     105      SAPS     H4S      HAL2     0.900000E-01   1.00800           0
     12234 MEMB     105      SAPS     C25      CEL1    -0.150000       12.0110           0
     12235 MEMB     105      SAPS     H5R      HEL1     0.150000       1.00800           0
     12236 MEMB     105      SAPS     C26      CEL1    -0.150000       12.0110           0
     12237 MEMB     105      SAPS     H6R      HEL1     0.150000       1.00800           0
     12238 MEMB     105      SAPS     C27      CTL2    -0.180000       12.0110           0
     12239 MEMB     105      SAPS     H7R      HAL2     0.900000E-01   1.00800           0
     12240 MEMB     105      SAPS     H7S      HAL2     0.900000E-01   1.00800           0
     12241 MEMB     105      SAPS     C28      CEL1    -0.150000       12.0110           0
     12242 MEMB     105      SAPS     H8R      HEL1     0.150000       1.00800           0
     12243 MEMB     105      SAPS     C29      CEL1    -0.150000       12.0110           0
     12244 MEMB     105      SAPS     H9R      HEL1     0.150000       1.00800           0
     12245 MEMB     105      SAPS     C210     CTL2    -0.180000       12.0110           0
     12246 MEMB     105      SAPS     H10R     HAL2     0.900000E-01   1.00800           0
     12247 MEMB     105      SAPS     H10S     HAL2     0.900000E-01   1.00800           0
     12248 MEMB     105      SAPS     C211     CEL1    -0.150000       12.0110           0
     12249 MEMB     105      SAPS     H11R     HEL1     0.150000       1.00800           0
     12250 MEMB     105      SAPS     C212     CEL1    -0.150000       12.0110           0
     12251 MEMB     105      SAPS     H12R     HEL1     0.150000       1.00800           0
     12252 MEMB     105      SAPS     C213     CTL2    -0.180000       12.0110           0
     12253 MEMB     105      SAPS     H13R     HAL2     0.900000E-01   1.00800           0
     12254 MEMB     105      SAPS     H13S     HAL2     0.900000E-01   1.00800           0
     12255 MEMB     105      SAPS     C214     CEL1    -0.150000       12.0110           0
     12256 MEMB     105      SAPS     H14R     HEL1     0.150000       1.00800           0
     12257 MEMB     105      SAPS     C215     CEL1    -0.150000       12.0110           0
     12258 MEMB     105      SAPS     H15R     HEL1     0.150000       1.00800           0
     12259 MEMB     105      SAPS     C216     CTL2    -0.180000       12.0110           0
     12260 MEMB     105      SAPS     H16R     HAL2     0.900000E-01   1.00800           0
     12261 MEMB     105      SAPS     H16S     HAL2     0.900000E-01   1.00800           0
     12262 MEMB     105      SAPS     C217     CTL2    -0.180000       12.0110           0
     12263 MEMB     105      SAPS     H17R     HAL2     0.900000E-01   1.00800           0
     12264 MEMB     105      SAPS     H17S     HAL2     0.900000E-01   1.00800           0
     12265 MEMB     105      SAPS     C218     CTL2    -0.180000       12.0110           0
     12266 MEMB     105      SAPS     H18R     HAL2     0.900000E-01   1.00800           0
     12267 MEMB     105      SAPS     H18S     HAL2     0.900000E-01   1.00800           0
     12268 MEMB     105      SAPS     C219     CTL2    -0.180000       12.0110           0
     12269 MEMB     105      SAPS     H19R     HAL2     0.900000E-01   1.00800           0
     12270 MEMB     105      SAPS     H19S     HAL2     0.900000E-01   1.00800           0
     12271 MEMB     105      SAPS     C220     CTL3    -0.270000       12.0110           0
     12272 MEMB     105      SAPS     H20R     HAL3     0.900000E-01   1.00800           0
     12273 MEMB     105      SAPS     H20S     HAL3     0.900000E-01   1.00800           0
     12274 MEMB     105      SAPS     H20T     HAL3     0.900000E-01   1.00800           0
     12275 MEMB     105      SAPS     C33      CTL2    -0.180000       12.0110           0
     12276 MEMB     105      SAPS     H3X      HAL2     0.900000E-01   1.00800           0
     12277 MEMB     105      SAPS     H3Y      HAL2     0.900000E-01   1.00800           0
     12278 MEMB     105      SAPS     C34      CTL2    -0.180000       12.0110           0
     12279 MEMB     105      SAPS     H4X      HAL2     0.900000E-01   1.00800           0
     12280 MEMB     105      SAPS     H4Y      HAL2     0.900000E-01   1.00800           0
     12281 MEMB     105      SAPS     C35      CTL2    -0.180000       12.0110           0
     12282 MEMB     105      SAPS     H5X      HAL2     0.900000E-01   1.00800           0
     12283 MEMB     105      SAPS     H5Y      HAL2     0.900000E-01   1.00800           0
     12284 MEMB     105      SAPS     C36      CTL2    -0.180000       12.0110           0
     12285 MEMB     105      SAPS     H6X      HAL2     0.900000E-01   1.00800           0
     12286 MEMB     105      SAPS     H6Y      HAL2     0.900000E-01   1.00800           0
     12287 MEMB     105      SAPS     C37      CTL2    -0.180000       12.0110           0
     12288 MEMB     105      SAPS     H7X      HAL2     0.900000E-01   1.00800           0
     12289 MEMB     105      SAPS     H7Y      HAL2     0.900000E-01   1.00800           0
     12290 MEMB     105      SAPS     C38      CTL2    -0.180000       12.0110           0
     12291 MEMB     105      SAPS     H8X      HAL2     0.900000E-01   1.00800           0
     12292 MEMB     105      SAPS     H8Y      HAL2     0.900000E-01   1.00800           0
     12293 MEMB     105      SAPS     C39      CTL2    -0.180000       12.0110           0
     12294 MEMB     105      SAPS     H9X      HAL2     0.900000E-01   1.00800           0
     12295 MEMB     105      SAPS     H9Y      HAL2     0.900000E-01   1.00800           0
     12296 MEMB     105      SAPS     C310     CTL2    -0.180000       12.0110           0
     12297 MEMB     105      SAPS     H10X     HAL2     0.900000E-01   1.00800           0
     12298 MEMB     105      SAPS     H10Y     HAL2     0.900000E-01   1.00800           0
     12299 MEMB     105      SAPS     C311     CTL2    -0.180000       12.0110           0
     12300 MEMB     105      SAPS     H11X     HAL2     0.900000E-01   1.00800           0
     12301 MEMB     105      SAPS     H11Y     HAL2     0.900000E-01   1.00800           0
     12302 MEMB     105      SAPS     C312     CTL2    -0.180000       12.0110           0
     12303 MEMB     105      SAPS     H12X     HAL2     0.900000E-01   1.00800           0
     12304 MEMB     105      SAPS     H12Y     HAL2     0.900000E-01   1.00800           0
     12305 MEMB     105      SAPS     C313     CTL2    -0.180000       12.0110           0
     12306 MEMB     105      SAPS     H13X     HAL2     0.900000E-01   1.00800           0
     12307 MEMB     105      SAPS     H13Y     HAL2     0.900000E-01   1.00800           0
     12308 MEMB     105      SAPS     C314     CTL2    -0.180000       12.0110           0
     12309 MEMB     105      SAPS     H14X     HAL2     0.900000E-01   1.00800           0
     12310 MEMB     105      SAPS     H14Y     HAL2     0.900000E-01   1.00800           0
     12311 MEMB     105      SAPS     C315     CTL2    -0.180000       12.0110           0
     12312 MEMB     105      SAPS     H15X     HAL2     0.900000E-01   1.00800           0
     12313 MEMB     105      SAPS     H15Y     HAL2     0.900000E-01   1.00800           0
     12314 MEMB     105      SAPS     C316     CTL2    -0.180000       12.0110           0
     12315 MEMB     105      SAPS     H16X     HAL2     0.900000E-01   1.00800           0
     12316 MEMB     105      SAPS     H16Y     HAL2     0.900000E-01   1.00800           0
     12317 MEMB     105      SAPS     C317     CTL2    -0.180000       12.0110           0
     12318 MEMB     105      SAPS     H17X     HAL2     0.900000E-01   1.00800           0
     12319 MEMB     105      SAPS     H17Y     HAL2     0.900000E-01   1.00800           0
     12320 MEMB     105      SAPS     C318     CTL3    -0.270000       12.0110           0
     12321 MEMB     105      SAPS     H18X     HAL3     0.900000E-01   1.00800           0
     12322 MEMB     105      SAPS     H18Y     HAL3     0.900000E-01   1.00800           0
     12323 MEMB     105      SAPS     H18Z     HAL3     0.900000E-01   1.00800           0
     12324 MEMB     106      CHL1     C3       CRL1     0.140000       12.0110           0
     12325 MEMB     106      CHL1     H3       HGA1     0.900000E-01   1.00800           0
     12326 MEMB     106      CHL1     O3       OHL     -0.660000       15.9994           0
     12327 MEMB     106      CHL1     H3'      HOL      0.430000       1.00800           0
     12328 MEMB     106      CHL1     C4       CRL2    -0.180000       12.0110           0
     12329 MEMB     106      CHL1     H4A      HGA2     0.900000E-01   1.00800           0
     12330 MEMB     106      CHL1     H4B      HGA2     0.900000E-01   1.00800           0
     12331 MEMB     106      CHL1     C5       CEL1      0.00000       12.0110           0
     12332 MEMB     106      CHL1     C6       CEL1    -0.150000       12.0110           0
     12333 MEMB     106      CHL1     H6       HEL1     0.150000       1.00800           0
     12334 MEMB     106      CHL1     C7       CRL2    -0.180000       12.0110           0
     12335 MEMB     106      CHL1     H7A      HGA2     0.900000E-01   1.00800           0
     12336 MEMB     106      CHL1     H7B      HGA2     0.900000E-01   1.00800           0
     12337 MEMB     106      CHL1     C8       CRL1    -0.900000E-01   12.0110           0
     12338 MEMB     106      CHL1     H8       HGA1     0.900000E-01   1.00800           0
     12339 MEMB     106      CHL1     C14      CRL1    -0.900000E-01   12.0110           0
     12340 MEMB     106      CHL1     H14      HGA1     0.900000E-01   1.00800           0
     12341 MEMB     106      CHL1     C15      CRL2    -0.180000       12.0110           0
     12342 MEMB     106      CHL1     H15A     HGA2     0.900000E-01   1.00800           0
     12343 MEMB     106      CHL1     H15B     HGA2     0.900000E-01   1.00800           0
     12344 MEMB     106      CHL1     C16      CRL2    -0.180000       12.0110           0
     12345 MEMB     106      CHL1     H16A     HGA2     0.900000E-01   1.00800           0
     12346 MEMB     106      CHL1     H16B     HGA2     0.900000E-01   1.00800           0
     12347 MEMB     106      CHL1     C17      CRL1    -0.900000E-01   12.0110           0
     12348 MEMB     106      CHL1     H17      HGA1     0.900000E-01   1.00800           0
     12349 MEMB     106      CHL1     C13      CRL1      0.00000       12.0110           0
     12350 MEMB     106      CHL1     C18      CTL3    -0.270000       12.0110           0
     12351 MEMB     106      CHL1     H18A     HAL3     0.900000E-01   1.00800           0
     12352 MEMB     106      CHL1     H18B     HAL3     0.900000E-01   1.00800           0
     12353 MEMB     106      CHL1     H18C     HAL3     0.900000E-01   1.00800           0
     12354 MEMB     106      CHL1     C12      CRL2    -0.180000       12.0110           0
     12355 MEMB     106      CHL1     H12A     HGA2     0.900000E-01   1.00800           0
     12356 MEMB     106      CHL1     H12B     HGA2     0.900000E-01   1.00800           0
     12357 MEMB     106      CHL1     C11      CRL2    -0.180000       12.0110           0
     12358 MEMB     106      CHL1     H11A     HGA2     0.900000E-01   1.00800           0
     12359 MEMB     106      CHL1     H11B     HGA2     0.900000E-01   1.00800           0
     12360 MEMB     106      CHL1     C9       CRL1    -0.900000E-01   12.0110           0
     12361 MEMB     106      CHL1     H9       HGA1     0.900000E-01   1.00800           0
     12362 MEMB     106      CHL1     C10      CRL1      0.00000       12.0110           0
     12363 MEMB     106      CHL1     C19      CTL3    -0.270000       12.0110           0
     12364 MEMB     106      CHL1     H19A     HAL3     0.900000E-01   1.00800           0
     12365 MEMB     106      CHL1     H19B     HAL3     0.900000E-01   1.00800           0
     12366 MEMB     106      CHL1     H19C     HAL3     0.900000E-01   1.00800           0
     12367 MEMB     106      CHL1     C1       CRL2    -0.180000       12.0110           0
     12368 MEMB     106      CHL1     H1A      HGA2     0.900000E-01   1.00800           0
     12369 MEMB     106      CHL1     H1B      HGA2     0.900000E-01   1.00800           0
     12370 MEMB     106      CHL1     C2       CRL2    -0.180000       12.0110           0
     12371 MEMB     106      CHL1     H2A      HGA2     0.900000E-01   1.00800           0
     12372 MEMB     106      CHL1     H2B      HGA2     0.900000E-01   1.00800           0
     12373 MEMB     106      CHL1     C20      CTL1    -0.900000E-01   12.0110           0
     12374 MEMB     106      CHL1     H20      HAL1     0.900000E-01   1.00800           0
     12375 MEMB     106      CHL1     C21      CTL3    -0.270000       12.0110           0
     12376 MEMB     106      CHL1     H21A     HAL3     0.900000E-01   1.00800           0
     12377 MEMB     106      CHL1     H21B     HAL3     0.900000E-01   1.00800           0
     12378 MEMB     106      CHL1     H21C     HAL3     0.900000E-01   1.00800           0
     12379 MEMB     106      CHL1     C22      CTL2    -0.180000       12.0110           0
     12380 MEMB     106      CHL1     H22A     HAL2     0.900000E-01   1.00800           0
     12381 MEMB     106      CHL1     H22B     HAL2     0.900000E-01   1.00800           0
     12382 MEMB     106      CHL1     C23      CTL2    -0.180000       12.0110           0
     12383 MEMB     106      CHL1     H23A     HAL2     0.900000E-01   1.00800           0
     12384 MEMB     106      CHL1     H23B     HAL2     0.900000E-01   1.00800           0
     12385 MEMB     106      CHL1     C24      CTL2    -0.180000       12.0110           0
     12386 MEMB     106      CHL1     H24A     HAL2     0.900000E-01   1.00800           0
     12387 MEMB     106      CHL1     H24B     HAL2     0.900000E-01   1.00800           0
     12388 MEMB     106      CHL1     C25      CTL1    -0.900000E-01   12.0110           0
     12389 MEMB     106      CHL1     H25      HAL1     0.900000E-01   1.00800           0
     12390 MEMB     106      CHL1     C26      CTL3    -0.270000       12.0110           0
     12391 MEMB     106      CHL1     H26A     HAL3     0.900000E-01   1.00800           0
     12392 MEMB     106      CHL1     H26B     HAL3     0.900000E-01   1.00800           0
     12393 MEMB     106      CHL1     H26C     HAL3     0.900000E-01   1.00800           0
     12394 MEMB     106      CHL1     C27      CTL3    -0.270000       12.0110           0
     12395 MEMB     106      CHL1     H27A     HAL3     0.900000E-01   1.00800           0
     12396 MEMB     106      CHL1     H27B     HAL3     0.900000E-01   1.00800           0
     12397 MEMB     106      CHL1     H27C     HAL3     0.900000E-01   1.00800           0
     12398 MEMB     107      CHL1     C3       CRL1     0.140000       12.0110           0
     12399 MEMB     107      CHL1     H3       HGA1     0.900000E-01   1.00800           0
     12400 MEMB     107      CHL1     O3       OHL     -0.660000       15.9994           0
     12401 MEMB     107      CHL1     H3'      HOL      0.430000       1.00800           0
     12402 MEMB     107      CHL1     C4       CRL2    -0.180000       12.0110           0
     12403 MEMB     107      CHL1     H4A      HGA2     0.900000E-01   1.00800           0
     12404 MEMB     107      CHL1     H4B      HGA2     0.900000E-01   1.00800           0
     12405 MEMB     107      CHL1     C5       CEL1      0.00000       12.0110           0
     12406 MEMB     107      CHL1     C6       CEL1    -0.150000       12.0110           0
     12407 MEMB     107      CHL1     H6       HEL1     0.150000       1.00800           0
     12408 MEMB     107      CHL1     C7       CRL2    -0.180000       12.0110           0
     12409 MEMB     107      CHL1     H7A      HGA2     0.900000E-01   1.00800           0
     12410 MEMB     107      CHL1     H7B      HGA2     0.900000E-01   1.00800           0
     12411 MEMB     107      CHL1     C8       CRL1    -0.900000E-01   12.0110           0
     12412 MEMB     107      CHL1     H8       HGA1     0.900000E-01   1.00800           0
     12413 MEMB     107      CHL1     C14      CRL1    -0.900000E-01   12.0110           0
     12414 MEMB     107      CHL1     H14      HGA1     0.900000E-01   1.00800           0
     12415 MEMB     107      CHL1     C15      CRL2    -0.180000       12.0110           0
     12416 MEMB     107      CHL1     H15A     HGA2     0.900000E-01   1.00800           0
     12417 MEMB     107      CHL1     H15B     HGA2     0.900000E-01   1.00800           0
     12418 MEMB     107      CHL1     C16      CRL2    -0.180000       12.0110           0
     12419 MEMB     107      CHL1     H16A     HGA2     0.900000E-01   1.00800           0
     12420 MEMB     107      CHL1     H16B     HGA2     0.900000E-01   1.00800           0
     12421 MEMB     107      CHL1     C17      CRL1    -0.900000E-01   12.0110           0
     12422 MEMB     107      CHL1     H17      HGA1     0.900000E-01   1.00800           0
     12423 MEMB     107      CHL1     C13      CRL1      0.00000       12.0110           0
     12424 MEMB     107      CHL1     C18      CTL3    -0.270000       12.0110           0
     12425 MEMB     107      CHL1     H18A     HAL3     0.900000E-01   1.00800           0
     12426 MEMB     107      CHL1     H18B     HAL3     0.900000E-01   1.00800           0
     12427 MEMB     107      CHL1     H18C     HAL3     0.900000E-01   1.00800           0
     12428 MEMB     107      CHL1     C12      CRL2    -0.180000       12.0110           0
     12429 MEMB     107      CHL1     H12A     HGA2     0.900000E-01   1.00800           0
     12430 MEMB     107      CHL1     H12B     HGA2     0.900000E-01   1.00800           0
     12431 MEMB     107      CHL1     C11      CRL2    -0.180000       12.0110           0
     12432 MEMB     107      CHL1     H11A     HGA2     0.900000E-01   1.00800           0
     12433 MEMB     107      CHL1     H11B     HGA2     0.900000E-01   1.00800           0
     12434 MEMB     107      CHL1     C9       CRL1    -0.900000E-01   12.0110           0
     12435 MEMB     107      CHL1     H9       HGA1     0.900000E-01   1.00800           0
     12436 MEMB     107      CHL1     C10      CRL1      0.00000       12.0110           0
     12437 MEMB     107      CHL1     C19      CTL3    -0.270000       12.0110           0
     12438 MEMB     107      CHL1     H19A     HAL3     0.900000E-01   1.00800           0
     12439 MEMB     107      CHL1     H19B     HAL3     0.900000E-01   1.00800           0
     12440 MEMB     107      CHL1     H19C     HAL3     0.900000E-01   1.00800           0
     12441 MEMB     107      CHL1     C1       CRL2    -0.180000       12.0110           0
     12442 MEMB     107      CHL1     H1A      HGA2     0.900000E-01   1.00800           0
     12443 MEMB     107      CHL1     H1B      HGA2     0.900000E-01   1.00800           0
     12444 MEMB     107      CHL1     C2       CRL2    -0.180000       12.0110           0
     12445 MEMB     107      CHL1     H2A      HGA2     0.900000E-01   1.00800           0
     12446 MEMB     107      CHL1     H2B      HGA2     0.900000E-01   1.00800           0
     12447 MEMB     107      CHL1     C20      CTL1    -0.900000E-01   12.0110           0
     12448 MEMB     107      CHL1     H20      HAL1     0.900000E-01   1.00800           0
     12449 MEMB     107      CHL1     C21      CTL3    -0.270000       12.0110           0
     12450 MEMB     107      CHL1     H21A     HAL3     0.900000E-01   1.00800           0
     12451 MEMB     107      CHL1     H21B     HAL3     0.900000E-01   1.00800           0
     12452 MEMB     107      CHL1     H21C     HAL3     0.900000E-01   1.00800           0
     12453 MEMB     107      CHL1     C22      CTL2    -0.180000       12.0110           0
     12454 MEMB     107      CHL1     H22A     HAL2     0.900000E-01   1.00800           0
     12455 MEMB     107      CHL1     H22B     HAL2     0.900000E-01   1.00800           0
     12456 MEMB     107      CHL1     C23      CTL2    -0.180000       12.0110           0
     12457 MEMB     107      CHL1     H23A     HAL2     0.900000E-01   1.00800           0
     12458 MEMB     107      CHL1     H23B     HAL2     0.900000E-01   1.00800           0
     12459 MEMB     107      CHL1     C24      CTL2    -0.180000       12.0110           0
     12460 MEMB     107      CHL1     H24A     HAL2     0.900000E-01   1.00800           0
     12461 MEMB     107      CHL1     H24B     HAL2     0.900000E-01   1.00800           0
     12462 MEMB     107      CHL1     C25      CTL1    -0.900000E-01   12.0110           0
     12463 MEMB     107      CHL1     H25      HAL1     0.900000E-01   1.00800           0
     12464 MEMB     107      CHL1     C26      CTL3    -0.270000       12.0110           0
     12465 MEMB     107      CHL1     H26A     HAL3     0.900000E-01   1.00800           0
     12466 MEMB     107      CHL1     H26B     HAL3     0.900000E-01   1.00800           0
     12467 MEMB     107      CHL1     H26C     HAL3     0.900000E-01   1.00800           0
     12468 MEMB     107      CHL1     C27      CTL3    -0.270000       12.0110           0
     12469 MEMB     107      CHL1     H27A     HAL3     0.900000E-01   1.00800           0
     12470 MEMB     107      CHL1     H27B     HAL3     0.900000E-01   1.00800           0
     12471 MEMB     107      CHL1     H27C     HAL3     0.900000E-01   1.00800           0
     12472 MEMB     108      SAPS     N        NH3L    -0.300000       14.0070           0
     12473 MEMB     108      SAPS     HN1      HCL      0.330000       1.00800           0
     12474 MEMB     108      SAPS     HN2      HCL      0.330000       1.00800           0
     12475 MEMB     108      SAPS     HN3      HCL      0.330000       1.00800           0
     12476 MEMB     108      SAPS     C12      CTL1     0.210000       12.0110           0
     12477 MEMB     108      SAPS     H12A     HBL      0.100000       1.00800           0
     12478 MEMB     108      SAPS     C13      CCL      0.340000       12.0110           0
     12479 MEMB     108      SAPS     O13A     OCL     -0.670000       15.9994           0
     12480 MEMB     108      SAPS     O13B     OCL     -0.670000       15.9994           0
     12481 MEMB     108      SAPS     C11      CTL2    -0.800000E-01   12.0110           0
     12482 MEMB     108      SAPS     H11A     HAL2     0.900000E-01   1.00800           0
     12483 MEMB     108      SAPS     H11B     HAL2     0.900000E-01   1.00800           0
     12484 MEMB     108      SAPS     P        PL        1.50000       30.9740           0
     12485 MEMB     108      SAPS     O13      O2L     -0.780000       15.9994           0
     12486 MEMB     108      SAPS     O14      O2L     -0.780000       15.9994           0
     12487 MEMB     108      SAPS     O12      OSLP    -0.570000       15.9994           0
     12488 MEMB     108      SAPS     O11      OSLP    -0.570000       15.9994           0
     12489 MEMB     108      SAPS     C1       CTL2    -0.800000E-01   12.0110           0
     12490 MEMB     108      SAPS     HA       HAL2     0.900000E-01   1.00800           0
     12491 MEMB     108      SAPS     HB       HAL2     0.900000E-01   1.00800           0
     12492 MEMB     108      SAPS     C2       CTL1     0.170000       12.0110           0
     12493 MEMB     108      SAPS     HS       HAL1     0.900000E-01   1.00800           0
     12494 MEMB     108      SAPS     O21      OSL     -0.490000       15.9994           0
     12495 MEMB     108      SAPS     C21      CL       0.900000       12.0110           0
     12496 MEMB     108      SAPS     O22      OBL     -0.630000       15.9994           0
     12497 MEMB     108      SAPS     C22      CTL2    -0.220000       12.0110           0
     12498 MEMB     108      SAPS     H2R      HAL2     0.900000E-01   1.00800           0
     12499 MEMB     108      SAPS     H2S      HAL2     0.900000E-01   1.00800           0
     12500 MEMB     108      SAPS     C3       CTL2     0.800000E-01   12.0110           0
     12501 MEMB     108      SAPS     HX       HAL2     0.900000E-01   1.00800           0
     12502 MEMB     108      SAPS     HY       HAL2     0.900000E-01   1.00800           0
     12503 MEMB     108      SAPS     O31      OSL     -0.490000       15.9994           0
     12504 MEMB     108      SAPS     C31      CL       0.900000       12.0110           0
     12505 MEMB     108      SAPS     O32      OBL     -0.630000       15.9994           0
     12506 MEMB     108      SAPS     C32      CTL2    -0.220000       12.0110           0
     12507 MEMB     108      SAPS     H2X      HAL2     0.900000E-01   1.00800           0
     12508 MEMB     108      SAPS     H2Y      HAL2     0.900000E-01   1.00800           0
     12509 MEMB     108      SAPS     C23      CTL2    -0.180000       12.0110           0
     12510 MEMB     108      SAPS     H3R      HAL2     0.900000E-01   1.00800           0
     12511 MEMB     108      SAPS     H3S      HAL2     0.900000E-01   1.00800           0
     12512 MEMB     108      SAPS     C24      CTL2    -0.180000       12.0110           0
     12513 MEMB     108      SAPS     H4R      HAL2     0.900000E-01   1.00800           0
     12514 MEMB     108      SAPS     H4S      HAL2     0.900000E-01   1.00800           0
     12515 MEMB     108      SAPS     C25      CEL1    -0.150000       12.0110           0
     12516 MEMB     108      SAPS     H5R      HEL1     0.150000       1.00800           0
     12517 MEMB     108      SAPS     C26      CEL1    -0.150000       12.0110           0
     12518 MEMB     108      SAPS     H6R      HEL1     0.150000       1.00800           0
     12519 MEMB     108      SAPS     C27      CTL2    -0.180000       12.0110           0
     12520 MEMB     108      SAPS     H7R      HAL2     0.900000E-01   1.00800           0
     12521 MEMB     108      SAPS     H7S      HAL2     0.900000E-01   1.00800           0
     12522 MEMB     108      SAPS     C28      CEL1    -0.150000       12.0110           0
     12523 MEMB     108      SAPS     H8R      HEL1     0.150000       1.00800           0
     12524 MEMB     108      SAPS     C29      CEL1    -0.150000       12.0110           0
     12525 MEMB     108      SAPS     H9R      HEL1     0.150000       1.00800           0
     12526 MEMB     108      SAPS     C210     CTL2    -0.180000       12.0110           0
     12527 MEMB     108      SAPS     H10R     HAL2     0.900000E-01   1.00800           0
     12528 MEMB     108      SAPS     H10S     HAL2     0.900000E-01   1.00800           0
     12529 MEMB     108      SAPS     C211     CEL1    -0.150000       12.0110           0
     12530 MEMB     108      SAPS     H11R     HEL1     0.150000       1.00800           0
     12531 MEMB     108      SAPS     C212     CEL1    -0.150000       12.0110           0
     12532 MEMB     108      SAPS     H12R     HEL1     0.150000       1.00800           0
     12533 MEMB     108      SAPS     C213     CTL2    -0.180000       12.0110           0
     12534 MEMB     108      SAPS     H13R     HAL2     0.900000E-01   1.00800           0
     12535 MEMB     108      SAPS     H13S     HAL2     0.900000E-01   1.00800           0
     12536 MEMB     108      SAPS     C214     CEL1    -0.150000       12.0110           0
     12537 MEMB     108      SAPS     H14R     HEL1     0.150000       1.00800           0
     12538 MEMB     108      SAPS     C215     CEL1    -0.150000       12.0110           0
     12539 MEMB     108      SAPS     H15R     HEL1     0.150000       1.00800           0
     12540 MEMB     108      SAPS     C216     CTL2    -0.180000       12.0110           0
     12541 MEMB     108      SAPS     H16R     HAL2     0.900000E-01   1.00800           0
     12542 MEMB     108      SAPS     H16S     HAL2     0.900000E-01   1.00800           0
     12543 MEMB     108      SAPS     C217     CTL2    -0.180000       12.0110           0
     12544 MEMB     108      SAPS     H17R     HAL2     0.900000E-01   1.00800           0
     12545 MEMB     108      SAPS     H17S     HAL2     0.900000E-01   1.00800           0
     12546 MEMB     108      SAPS     C218     CTL2    -0.180000       12.0110           0
     12547 MEMB     108      SAPS     H18R     HAL2     0.900000E-01   1.00800           0
     12548 MEMB     108      SAPS     H18S     HAL2     0.900000E-01   1.00800           0
     12549 MEMB     108      SAPS     C219     CTL2    -0.180000       12.0110           0
     12550 MEMB     108      SAPS     H19R     HAL2     0.900000E-01   1.00800           0
     12551 MEMB     108      SAPS     H19S     HAL2     0.900000E-01   1.00800           0
     12552 MEMB     108      SAPS     C220     CTL3    -0.270000       12.0110           0
     12553 MEMB     108      SAPS     H20R     HAL3     0.900000E-01   1.00800           0
     12554 MEMB     108      SAPS     H20S     HAL3     0.900000E-01   1.00800           0
     12555 MEMB     108      SAPS     H20T     HAL3     0.900000E-01   1.00800           0
     12556 MEMB     108      SAPS     C33      CTL2    -0.180000       12.0110           0
     12557 MEMB     108      SAPS     H3X      HAL2     0.900000E-01   1.00800           0
     12558 MEMB     108      SAPS     H3Y      HAL2     0.900000E-01   1.00800           0
     12559 MEMB     108      SAPS     C34      CTL2    -0.180000       12.0110           0
     12560 MEMB     108      SAPS     H4X      HAL2     0.900000E-01   1.00800           0
     12561 MEMB     108      SAPS     H4Y      HAL2     0.900000E-01   1.00800           0
     12562 MEMB     108      SAPS     C35      CTL2    -0.180000       12.0110           0
     12563 MEMB     108      SAPS     H5X      HAL2     0.900000E-01   1.00800           0
     12564 MEMB     108      SAPS     H5Y      HAL2     0.900000E-01   1.00800           0
     12565 MEMB     108      SAPS     C36      CTL2    -0.180000       12.0110           0
     12566 MEMB     108      SAPS     H6X      HAL2     0.900000E-01   1.00800           0
     12567 MEMB     108      SAPS     H6Y      HAL2     0.900000E-01   1.00800           0
     12568 MEMB     108      SAPS     C37      CTL2    -0.180000       12.0110           0
     12569 MEMB     108      SAPS     H7X      HAL2     0.900000E-01   1.00800           0
     12570 MEMB     108      SAPS     H7Y      HAL2     0.900000E-01   1.00800           0
     12571 MEMB     108      SAPS     C38      CTL2    -0.180000       12.0110           0
     12572 MEMB     108      SAPS     H8X      HAL2     0.900000E-01   1.00800           0
     12573 MEMB     108      SAPS     H8Y      HAL2     0.900000E-01   1.00800           0
     12574 MEMB     108      SAPS     C39      CTL2    -0.180000       12.0110           0
     12575 MEMB     108      SAPS     H9X      HAL2     0.900000E-01   1.00800           0
     12576 MEMB     108      SAPS     H9Y      HAL2     0.900000E-01   1.00800           0
     12577 MEMB     108      SAPS     C310     CTL2    -0.180000       12.0110           0
     12578 MEMB     108      SAPS     H10X     HAL2     0.900000E-01   1.00800           0
     12579 MEMB     108      SAPS     H10Y     HAL2     0.900000E-01   1.00800           0
     12580 MEMB     108      SAPS     C311     CTL2    -0.180000       12.0110           0
     12581 MEMB     108      SAPS     H11X     HAL2     0.900000E-01   1.00800           0
     12582 MEMB     108      SAPS     H11Y     HAL2     0.900000E-01   1.00800           0
     12583 MEMB     108      SAPS     C312     CTL2    -0.180000       12.0110           0
     12584 MEMB     108      SAPS     H12X     HAL2     0.900000E-01   1.00800           0
     12585 MEMB     108      SAPS     H12Y     HAL2     0.900000E-01   1.00800           0
     12586 MEMB     108      SAPS     C313     CTL2    -0.180000       12.0110           0
     12587 MEMB     108      SAPS     H13X     HAL2     0.900000E-01   1.00800           0
     12588 MEMB     108      SAPS     H13Y     HAL2     0.900000E-01   1.00800           0
     12589 MEMB     108      SAPS     C314     CTL2    -0.180000       12.0110           0
     12590 MEMB     108      SAPS     H14X     HAL2     0.900000E-01   1.00800           0
     12591 MEMB     108      SAPS     H14Y     HAL2     0.900000E-01   1.00800           0
     12592 MEMB     108      SAPS     C315     CTL2    -0.180000       12.0110           0
     12593 MEMB     108      SAPS     H15X     HAL2     0.900000E-01   1.00800           0
     12594 MEMB     108      SAPS     H15Y     HAL2     0.900000E-01   1.00800           0
     12595 MEMB     108      SAPS     C316     CTL2    -0.180000       12.0110           0
     12596 MEMB     108      SAPS     H16X     HAL2     0.900000E-01   1.00800           0
     12597 MEMB     108      SAPS     H16Y     HAL2     0.900000E-01   1.00800           0
     12598 MEMB     108      SAPS     C317     CTL2    -0.180000       12.0110           0
     12599 MEMB     108      SAPS     H17X     HAL2     0.900000E-01   1.00800           0
     12600 MEMB     108      SAPS     H17Y     HAL2     0.900000E-01   1.00800           0
     12601 MEMB     108      SAPS     C318     CTL3    -0.270000       12.0110           0
     12602 MEMB     108      SAPS     H18X     HAL3     0.900000E-01   1.00800           0
     12603 MEMB     108      SAPS     H18Y     HAL3     0.900000E-01   1.00800           0
     12604 MEMB     108      SAPS     H18Z     HAL3     0.900000E-01   1.00800           0
     12605 MEMB     109      SAPE     N        NH3L    -0.300000       14.0070           0
     12606 MEMB     109      SAPE     HN1      HCL      0.330000       1.00800           0
     12607 MEMB     109      SAPE     HN2      HCL      0.330000       1.00800           0
     12608 MEMB     109      SAPE     HN3      HCL      0.330000       1.00800           0
     12609 MEMB     109      SAPE     C12      CTL2     0.130000       12.0110           0
     12610 MEMB     109      SAPE     H12A     HAL2     0.900000E-01   1.00800           0
     12611 MEMB     109      SAPE     H12B     HAL2     0.900000E-01   1.00800           0
     12612 MEMB     109      SAPE     C11      CTL2    -0.800000E-01   12.0110           0
     12613 MEMB     109      SAPE     H11A     HAL2     0.900000E-01   1.00800           0
     12614 MEMB     109      SAPE     H11B     HAL2     0.900000E-01   1.00800           0
     12615 MEMB     109      SAPE     P        PL        1.50000       30.9740           0
     12616 MEMB     109      SAPE     O13      O2L     -0.780000       15.9994           0
     12617 MEMB     109      SAPE     O14      O2L     -0.780000       15.9994           0
     12618 MEMB     109      SAPE     O12      OSLP    -0.570000       15.9994           0
     12619 MEMB     109      SAPE     O11      OSLP    -0.570000       15.9994           0
     12620 MEMB     109      SAPE     C1       CTL2    -0.800000E-01   12.0110           0
     12621 MEMB     109      SAPE     HA       HAL2     0.900000E-01   1.00800           0
     12622 MEMB     109      SAPE     HB       HAL2     0.900000E-01   1.00800           0
     12623 MEMB     109      SAPE     C2       CTL1     0.170000       12.0110           0
     12624 MEMB     109      SAPE     HS       HAL1     0.900000E-01   1.00800           0
     12625 MEMB     109      SAPE     O21      OSL     -0.490000       15.9994           0
     12626 MEMB     109      SAPE     C21      CL       0.900000       12.0110           0
     12627 MEMB     109      SAPE     O22      OBL     -0.630000       15.9994           0
     12628 MEMB     109      SAPE     C22      CTL2    -0.220000       12.0110           0
     12629 MEMB     109      SAPE     H2R      HAL2     0.900000E-01   1.00800           0
     12630 MEMB     109      SAPE     H2S      HAL2     0.900000E-01   1.00800           0
     12631 MEMB     109      SAPE     C3       CTL2     0.800000E-01   12.0110           0
     12632 MEMB     109      SAPE     HX       HAL2     0.900000E-01   1.00800           0
     12633 MEMB     109      SAPE     HY       HAL2     0.900000E-01   1.00800           0
     12634 MEMB     109      SAPE     O31      OSL     -0.490000       15.9994           0
     12635 MEMB     109      SAPE     C31      CL       0.900000       12.0110           0
     12636 MEMB     109      SAPE     O32      OBL     -0.630000       15.9994           0
     12637 MEMB     109      SAPE     C32      CTL2    -0.220000       12.0110           0
     12638 MEMB     109      SAPE     H2X      HAL2     0.900000E-01   1.00800           0
     12639 MEMB     109      SAPE     H2Y      HAL2     0.900000E-01   1.00800           0
     12640 MEMB     109      SAPE     C23      CTL2    -0.180000       12.0110           0
     12641 MEMB     109      SAPE     H3R      HAL2     0.900000E-01   1.00800           0
     12642 MEMB     109      SAPE     H3S      HAL2     0.900000E-01   1.00800           0
     12643 MEMB     109      SAPE     C24      CTL2    -0.180000       12.0110           0
     12644 MEMB     109      SAPE     H4R      HAL2     0.900000E-01   1.00800           0
     12645 MEMB     109      SAPE     H4S      HAL2     0.900000E-01   1.00800           0
     12646 MEMB     109      SAPE     C25      CEL1    -0.150000       12.0110           0
     12647 MEMB     109      SAPE     H5R      HEL1     0.150000       1.00800           0
     12648 MEMB     109      SAPE     C26      CEL1    -0.150000       12.0110           0
     12649 MEMB     109      SAPE     H6R      HEL1     0.150000       1.00800           0
     12650 MEMB     109      SAPE     C27      CTL2    -0.180000       12.0110           0
     12651 MEMB     109      SAPE     H7R      HAL2     0.900000E-01   1.00800           0
     12652 MEMB     109      SAPE     H7S      HAL2     0.900000E-01   1.00800           0
     12653 MEMB     109      SAPE     C28      CEL1    -0.150000       12.0110           0
     12654 MEMB     109      SAPE     H8R      HEL1     0.150000       1.00800           0
     12655 MEMB     109      SAPE     C29      CEL1    -0.150000       12.0110           0
     12656 MEMB     109      SAPE     H9R      HEL1     0.150000       1.00800           0
     12657 MEMB     109      SAPE     C210     CTL2    -0.180000       12.0110           0
     12658 MEMB     109      SAPE     H10R     HAL2     0.900000E-01   1.00800           0
     12659 MEMB     109      SAPE     H10S     HAL2     0.900000E-01   1.00800           0
     12660 MEMB     109      SAPE     C211     CEL1    -0.150000       12.0110           0
     12661 MEMB     109      SAPE     H11R     HEL1     0.150000       1.00800           0
     12662 MEMB     109      SAPE     C212     CEL1    -0.150000       12.0110           0
     12663 MEMB     109      SAPE     H12R     HEL1     0.150000       1.00800           0
     12664 MEMB     109      SAPE     C213     CTL2    -0.180000       12.0110           0
     12665 MEMB     109      SAPE     H13R     HAL2     0.900000E-01   1.00800           0
     12666 MEMB     109      SAPE     H13S     HAL2     0.900000E-01   1.00800           0
     12667 MEMB     109      SAPE     C214     CEL1    -0.150000       12.0110           0
     12668 MEMB     109      SAPE     H14R     HEL1     0.150000       1.00800           0
     12669 MEMB     109      SAPE     C215     CEL1    -0.150000       12.0110           0
     12670 MEMB     109      SAPE     H15R     HEL1     0.150000       1.00800           0
     12671 MEMB     109      SAPE     C216     CTL2    -0.180000       12.0110           0
     12672 MEMB     109      SAPE     H16R     HAL2     0.900000E-01   1.00800           0
     12673 MEMB     109      SAPE     H16S     HAL2     0.900000E-01   1.00800           0
     12674 MEMB     109      SAPE     C217     CTL2    -0.180000       12.0110           0
     12675 MEMB     109      SAPE     H17R     HAL2     0.900000E-01   1.00800           0
     12676 MEMB     109      SAPE     H17S     HAL2     0.900000E-01   1.00800           0
     12677 MEMB     109      SAPE     C218     CTL2    -0.180000       12.0110           0
     12678 MEMB     109      SAPE     H18R     HAL2     0.900000E-01   1.00800           0
     12679 MEMB     109      SAPE     H18S     HAL2     0.900000E-01   1.00800           0
     12680 MEMB     109      SAPE     C219     CTL2    -0.180000       12.0110           0
     12681 MEMB     109      SAPE     H19R     HAL2     0.900000E-01   1.00800           0
     12682 MEMB     109      SAPE     H19S     HAL2     0.900000E-01   1.00800           0
     12683 MEMB     109      SAPE     C220     CTL3    -0.270000       12.0110           0
     12684 MEMB     109      SAPE     H20R     HAL3     0.900000E-01   1.00800           0
     12685 MEMB     109      SAPE     H20S     HAL3     0.900000E-01   1.00800           0
     12686 MEMB     109      SAPE     H20T     HAL3     0.900000E-01   1.00800           0
     12687 MEMB     109      SAPE     C33      CTL2    -0.180000       12.0110           0
     12688 MEMB     109      SAPE     H3X      HAL2     0.900000E-01   1.00800           0
     12689 MEMB     109      SAPE     H3Y      HAL2     0.900000E-01   1.00800           0
     12690 MEMB     109      SAPE     C34      CTL2    -0.180000       12.0110           0
     12691 MEMB     109      SAPE     H4X      HAL2     0.900000E-01   1.00800           0
     12692 MEMB     109      SAPE     H4Y      HAL2     0.900000E-01   1.00800           0
     12693 MEMB     109      SAPE     C35      CTL2    -0.180000       12.0110           0
     12694 MEMB     109      SAPE     H5X      HAL2     0.900000E-01   1.00800           0
     12695 MEMB     109      SAPE     H5Y      HAL2     0.900000E-01   1.00800           0
     12696 MEMB     109      SAPE     C36      CTL2    -0.180000       12.0110           0
     12697 MEMB     109      SAPE     H6X      HAL2     0.900000E-01   1.00800           0
     12698 MEMB     109      SAPE     H6Y      HAL2     0.900000E-01   1.00800           0
     12699 MEMB     109      SAPE     C37      CTL2    -0.180000       12.0110           0
     12700 MEMB     109      SAPE     H7X      HAL2     0.900000E-01   1.00800           0
     12701 MEMB     109      SAPE     H7Y      HAL2     0.900000E-01   1.00800           0
     12702 MEMB     109      SAPE     C38      CTL2    -0.180000       12.0110           0
     12703 MEMB     109      SAPE     H8X      HAL2     0.900000E-01   1.00800           0
     12704 MEMB     109      SAPE     H8Y      HAL2     0.900000E-01   1.00800           0
     12705 MEMB     109      SAPE     C39      CTL2    -0.180000       12.0110           0
     12706 MEMB     109      SAPE     H9X      HAL2     0.900000E-01   1.00800           0
     12707 MEMB     109      SAPE     H9Y      HAL2     0.900000E-01   1.00800           0
     12708 MEMB     109      SAPE     C310     CTL2    -0.180000       12.0110           0
     12709 MEMB     109      SAPE     H10X     HAL2     0.900000E-01   1.00800           0
     12710 MEMB     109      SAPE     H10Y     HAL2     0.900000E-01   1.00800           0
     12711 MEMB     109      SAPE     C311     CTL2    -0.180000       12.0110           0
     12712 MEMB     109      SAPE     H11X     HAL2     0.900000E-01   1.00800           0
     12713 MEMB     109      SAPE     H11Y     HAL2     0.900000E-01   1.00800           0
     12714 MEMB     109      SAPE     C312     CTL2    -0.180000       12.0110           0
     12715 MEMB     109      SAPE     H12X     HAL2     0.900000E-01   1.00800           0
     12716 MEMB     109      SAPE     H12Y     HAL2     0.900000E-01   1.00800           0
     12717 MEMB     109      SAPE     C313     CTL2    -0.180000       12.0110           0
     12718 MEMB     109      SAPE     H13X     HAL2     0.900000E-01   1.00800           0
     12719 MEMB     109      SAPE     H13Y     HAL2     0.900000E-01   1.00800           0
     12720 MEMB     109      SAPE     C314     CTL2    -0.180000       12.0110           0
     12721 MEMB     109      SAPE     H14X     HAL2     0.900000E-01   1.00800           0
     12722 MEMB     109      SAPE     H14Y     HAL2     0.900000E-01   1.00800           0
     12723 MEMB     109      SAPE     C315     CTL2    -0.180000       12.0110           0
     12724 MEMB     109      SAPE     H15X     HAL2     0.900000E-01   1.00800           0
     12725 MEMB     109      SAPE     H15Y     HAL2     0.900000E-01   1.00800           0
     12726 MEMB     109      SAPE     C316     CTL2    -0.180000       12.0110           0
     12727 MEMB     109      SAPE     H16X     HAL2     0.900000E-01   1.00800           0
     12728 MEMB     109      SAPE     H16Y     HAL2     0.900000E-01   1.00800           0
     12729 MEMB     109      SAPE     C317     CTL2    -0.180000       12.0110           0
     12730 MEMB     109      SAPE     H17X     HAL2     0.900000E-01   1.00800           0
     12731 MEMB     109      SAPE     H17Y     HAL2     0.900000E-01   1.00800           0
     12732 MEMB     109      SAPE     C318     CTL3    -0.270000       12.0110           0
     12733 MEMB     109      SAPE     H18X     HAL3     0.900000E-01   1.00800           0
     12734 MEMB     109      SAPE     H18Y     HAL3     0.900000E-01   1.00800           0
     12735 MEMB     109      SAPE     H18Z     HAL3     0.900000E-01   1.00800           0
     12736 MEMB     110      CHL1     C3       CRL1     0.140000       12.0110           0
     12737 MEMB     110      CHL1     H3       HGA1     0.900000E-01   1.00800           0
     12738 MEMB     110      CHL1     O3       OHL     -0.660000       15.9994           0
     12739 MEMB     110      CHL1     H3'      HOL      0.430000       1.00800           0
     12740 MEMB     110      CHL1     C4       CRL2    -0.180000       12.0110           0
     12741 MEMB     110      CHL1     H4A      HGA2     0.900000E-01   1.00800           0
     12742 MEMB     110      CHL1     H4B      HGA2     0.900000E-01   1.00800           0
     12743 MEMB     110      CHL1     C5       CEL1      0.00000       12.0110           0
     12744 MEMB     110      CHL1     C6       CEL1    -0.150000       12.0110           0
     12745 MEMB     110      CHL1     H6       HEL1     0.150000       1.00800           0
     12746 MEMB     110      CHL1     C7       CRL2    -0.180000       12.0110           0
     12747 MEMB     110      CHL1     H7A      HGA2     0.900000E-01   1.00800           0
     12748 MEMB     110      CHL1     H7B      HGA2     0.900000E-01   1.00800           0
     12749 MEMB     110      CHL1     C8       CRL1    -0.900000E-01   12.0110           0
     12750 MEMB     110      CHL1     H8       HGA1     0.900000E-01   1.00800           0
     12751 MEMB     110      CHL1     C14      CRL1    -0.900000E-01   12.0110           0
     12752 MEMB     110      CHL1     H14      HGA1     0.900000E-01   1.00800           0
     12753 MEMB     110      CHL1     C15      CRL2    -0.180000       12.0110           0
     12754 MEMB     110      CHL1     H15A     HGA2     0.900000E-01   1.00800           0
     12755 MEMB     110      CHL1     H15B     HGA2     0.900000E-01   1.00800           0
     12756 MEMB     110      CHL1     C16      CRL2    -0.180000       12.0110           0
     12757 MEMB     110      CHL1     H16A     HGA2     0.900000E-01   1.00800           0
     12758 MEMB     110      CHL1     H16B     HGA2     0.900000E-01   1.00800           0
     12759 MEMB     110      CHL1     C17      CRL1    -0.900000E-01   12.0110           0
     12760 MEMB     110      CHL1     H17      HGA1     0.900000E-01   1.00800           0
     12761 MEMB     110      CHL1     C13      CRL1      0.00000       12.0110           0
     12762 MEMB     110      CHL1     C18      CTL3    -0.270000       12.0110           0
     12763 MEMB     110      CHL1     H18A     HAL3     0.900000E-01   1.00800           0
     12764 MEMB     110      CHL1     H18B     HAL3     0.900000E-01   1.00800           0
     12765 MEMB     110      CHL1     H18C     HAL3     0.900000E-01   1.00800           0
     12766 MEMB     110      CHL1     C12      CRL2    -0.180000       12.0110           0
     12767 MEMB     110      CHL1     H12A     HGA2     0.900000E-01   1.00800           0
     12768 MEMB     110      CHL1     H12B     HGA2     0.900000E-01   1.00800           0
     12769 MEMB     110      CHL1     C11      CRL2    -0.180000       12.0110           0
     12770 MEMB     110      CHL1     H11A     HGA2     0.900000E-01   1.00800           0
     12771 MEMB     110      CHL1     H11B     HGA2     0.900000E-01   1.00800           0
     12772 MEMB     110      CHL1     C9       CRL1    -0.900000E-01   12.0110           0
     12773 MEMB     110      CHL1     H9       HGA1     0.900000E-01   1.00800           0
     12774 MEMB     110      CHL1     C10      CRL1      0.00000       12.0110           0
     12775 MEMB     110      CHL1     C19      CTL3    -0.270000       12.0110           0
     12776 MEMB     110      CHL1     H19A     HAL3     0.900000E-01   1.00800           0
     12777 MEMB     110      CHL1     H19B     HAL3     0.900000E-01   1.00800           0
     12778 MEMB     110      CHL1     H19C     HAL3     0.900000E-01   1.00800           0
     12779 MEMB     110      CHL1     C1       CRL2    -0.180000       12.0110           0
     12780 MEMB     110      CHL1     H1A      HGA2     0.900000E-01   1.00800           0
     12781 MEMB     110      CHL1     H1B      HGA2     0.900000E-01   1.00800           0
     12782 MEMB     110      CHL1     C2       CRL2    -0.180000       12.0110           0
     12783 MEMB     110      CHL1     H2A      HGA2     0.900000E-01   1.00800           0
     12784 MEMB     110      CHL1     H2B      HGA2     0.900000E-01   1.00800           0
     12785 MEMB     110      CHL1     C20      CTL1    -0.900000E-01   12.0110           0
     12786 MEMB     110      CHL1     H20      HAL1     0.900000E-01   1.00800           0
     12787 MEMB     110      CHL1     C21      CTL3    -0.270000       12.0110           0
     12788 MEMB     110      CHL1     H21A     HAL3     0.900000E-01   1.00800           0
     12789 MEMB     110      CHL1     H21B     HAL3     0.900000E-01   1.00800           0
     12790 MEMB     110      CHL1     H21C     HAL3     0.900000E-01   1.00800           0
     12791 MEMB     110      CHL1     C22      CTL2    -0.180000       12.0110           0
     12792 MEMB     110      CHL1     H22A     HAL2     0.900000E-01   1.00800           0
     12793 MEMB     110      CHL1     H22B     HAL2     0.900000E-01   1.00800           0
     12794 MEMB     110      CHL1     C23      CTL2    -0.180000       12.0110           0
     12795 MEMB     110      CHL1     H23A     HAL2     0.900000E-01   1.00800           0
     12796 MEMB     110      CHL1     H23B     HAL2     0.900000E-01   1.00800           0
     12797 MEMB     110      CHL1     C24      CTL2    -0.180000       12.0110           0
     12798 MEMB     110      CHL1     H24A     HAL2     0.900000E-01   1.00800           0
     12799 MEMB     110      CHL1     H24B     HAL2     0.900000E-01   1.00800           0
     12800 MEMB     110      CHL1     C25      CTL1    -0.900000E-01   12.0110           0
     12801 MEMB     110      CHL1     H25      HAL1     0.900000E-01   1.00800           0
     12802 MEMB     110      CHL1     C26      CTL3    -0.270000       12.0110           0
     12803 MEMB     110      CHL1     H26A     HAL3     0.900000E-01   1.00800           0
     12804 MEMB     110      CHL1     H26B     HAL3     0.900000E-01   1.00800           0
     12805 MEMB     110      CHL1     H26C     HAL3     0.900000E-01   1.00800           0
     12806 MEMB     110      CHL1     C27      CTL3    -0.270000       12.0110           0
     12807 MEMB     110      CHL1     H27A     HAL3     0.900000E-01   1.00800           0
     12808 MEMB     110      CHL1     H27B     HAL3     0.900000E-01   1.00800           0
     12809 MEMB     110      CHL1     H27C     HAL3     0.900000E-01   1.00800           0
     12810 MEMB     111      CHL1     C3       CRL1     0.140000       12.0110           0
     12811 MEMB     111      CHL1     H3       HGA1     0.900000E-01   1.00800           0
     12812 MEMB     111      CHL1     O3       OHL     -0.660000       15.9994           0
     12813 MEMB     111      CHL1     H3'      HOL      0.430000       1.00800           0
     12814 MEMB     111      CHL1     C4       CRL2    -0.180000       12.0110           0
     12815 MEMB     111      CHL1     H4A      HGA2     0.900000E-01   1.00800           0
     12816 MEMB     111      CHL1     H4B      HGA2     0.900000E-01   1.00800           0
     12817 MEMB     111      CHL1     C5       CEL1      0.00000       12.0110           0
     12818 MEMB     111      CHL1     C6       CEL1    -0.150000       12.0110           0
     12819 MEMB     111      CHL1     H6       HEL1     0.150000       1.00800           0
     12820 MEMB     111      CHL1     C7       CRL2    -0.180000       12.0110           0
     12821 MEMB     111      CHL1     H7A      HGA2     0.900000E-01   1.00800           0
     12822 MEMB     111      CHL1     H7B      HGA2     0.900000E-01   1.00800           0
     12823 MEMB     111      CHL1     C8       CRL1    -0.900000E-01   12.0110           0
     12824 MEMB     111      CHL1     H8       HGA1     0.900000E-01   1.00800           0
     12825 MEMB     111      CHL1     C14      CRL1    -0.900000E-01   12.0110           0
     12826 MEMB     111      CHL1     H14      HGA1     0.900000E-01   1.00800           0
     12827 MEMB     111      CHL1     C15      CRL2    -0.180000       12.0110           0
     12828 MEMB     111      CHL1     H15A     HGA2     0.900000E-01   1.00800           0
     12829 MEMB     111      CHL1     H15B     HGA2     0.900000E-01   1.00800           0
     12830 MEMB     111      CHL1     C16      CRL2    -0.180000       12.0110           0
     12831 MEMB     111      CHL1     H16A     HGA2     0.900000E-01   1.00800           0
     12832 MEMB     111      CHL1     H16B     HGA2     0.900000E-01   1.00800           0
     12833 MEMB     111      CHL1     C17      CRL1    -0.900000E-01   12.0110           0
     12834 MEMB     111      CHL1     H17      HGA1     0.900000E-01   1.00800           0
     12835 MEMB     111      CHL1     C13      CRL1      0.00000       12.0110           0
     12836 MEMB     111      CHL1     C18      CTL3    -0.270000       12.0110           0
     12837 MEMB     111      CHL1     H18A     HAL3     0.900000E-01   1.00800           0
     12838 MEMB     111      CHL1     H18B     HAL3     0.900000E-01   1.00800           0
     12839 MEMB     111      CHL1     H18C     HAL3     0.900000E-01   1.00800           0
     12840 MEMB     111      CHL1     C12      CRL2    -0.180000       12.0110           0
     12841 MEMB     111      CHL1     H12A     HGA2     0.900000E-01   1.00800           0
     12842 MEMB     111      CHL1     H12B     HGA2     0.900000E-01   1.00800           0
     12843 MEMB     111      CHL1     C11      CRL2    -0.180000       12.0110           0
     12844 MEMB     111      CHL1     H11A     HGA2     0.900000E-01   1.00800           0
     12845 MEMB     111      CHL1     H11B     HGA2     0.900000E-01   1.00800           0
     12846 MEMB     111      CHL1     C9       CRL1    -0.900000E-01   12.0110           0
     12847 MEMB     111      CHL1     H9       HGA1     0.900000E-01   1.00800           0
     12848 MEMB     111      CHL1     C10      CRL1      0.00000       12.0110           0
     12849 MEMB     111      CHL1     C19      CTL3    -0.270000       12.0110           0
     12850 MEMB     111      CHL1     H19A     HAL3     0.900000E-01   1.00800           0
     12851 MEMB     111      CHL1     H19B     HAL3     0.900000E-01   1.00800           0
     12852 MEMB     111      CHL1     H19C     HAL3     0.900000E-01   1.00800           0
     12853 MEMB     111      CHL1     C1       CRL2    -0.180000       12.0110           0
     12854 MEMB     111      CHL1     H1A      HGA2     0.900000E-01   1.00800           0
     12855 MEMB     111      CHL1     H1B      HGA2     0.900000E-01   1.00800           0
     12856 MEMB     111      CHL1     C2       CRL2    -0.180000       12.0110           0
     12857 MEMB     111      CHL1     H2A      HGA2     0.900000E-01   1.00800           0
     12858 MEMB     111      CHL1     H2B      HGA2     0.900000E-01   1.00800           0
     12859 MEMB     111      CHL1     C20      CTL1    -0.900000E-01   12.0110           0
     12860 MEMB     111      CHL1     H20      HAL1     0.900000E-01   1.00800           0
     12861 MEMB     111      CHL1     C21      CTL3    -0.270000       12.0110           0
     12862 MEMB     111      CHL1     H21A     HAL3     0.900000E-01   1.00800           0
     12863 MEMB     111      CHL1     H21B     HAL3     0.900000E-01   1.00800           0
     12864 MEMB     111      CHL1     H21C     HAL3     0.900000E-01   1.00800           0
     12865 MEMB     111      CHL1     C22      CTL2    -0.180000       12.0110           0
     12866 MEMB     111      CHL1     H22A     HAL2     0.900000E-01   1.00800           0
     12867 MEMB     111      CHL1     H22B     HAL2     0.900000E-01   1.00800           0
     12868 MEMB     111      CHL1     C23      CTL2    -0.180000       12.0110           0
     12869 MEMB     111      CHL1     H23A     HAL2     0.900000E-01   1.00800           0
     12870 MEMB     111      CHL1     H23B     HAL2     0.900000E-01   1.00800           0
     12871 MEMB     111      CHL1     C24      CTL2    -0.180000       12.0110           0
     12872 MEMB     111      CHL1     H24A     HAL2     0.900000E-01   1.00800           0
     12873 MEMB     111      CHL1     H24B     HAL2     0.900000E-01   1.00800           0
     12874 MEMB     111      CHL1     C25      CTL1    -0.900000E-01   12.0110           0
     12875 MEMB     111      CHL1     H25      HAL1     0.900000E-01   1.00800           0
     12876 MEMB     111      CHL1     C26      CTL3    -0.270000       12.0110           0
     12877 MEMB     111      CHL1     H26A     HAL3     0.900000E-01   1.00800           0
     12878 MEMB     111      CHL1     H26B     HAL3     0.900000E-01   1.00800           0
     12879 MEMB     111      CHL1     H26C     HAL3     0.900000E-01   1.00800           0
     12880 MEMB     111      CHL1     C27      CTL3    -0.270000       12.0110           0
     12881 MEMB     111      CHL1     H27A     HAL3     0.900000E-01   1.00800           0
     12882 MEMB     111      CHL1     H27B     HAL3     0.900000E-01   1.00800           0
     12883 MEMB     111      CHL1     H27C     HAL3     0.900000E-01   1.00800           0
     12884 MEMB     112      CHL1     C3       CRL1     0.140000       12.0110           0
     12885 MEMB     112      CHL1     H3       HGA1     0.900000E-01   1.00800           0
     12886 MEMB     112      CHL1     O3       OHL     -0.660000       15.9994           0
     12887 MEMB     112      CHL1     H3'      HOL      0.430000       1.00800           0
     12888 MEMB     112      CHL1     C4       CRL2    -0.180000       12.0110           0
     12889 MEMB     112      CHL1     H4A      HGA2     0.900000E-01   1.00800           0
     12890 MEMB     112      CHL1     H4B      HGA2     0.900000E-01   1.00800           0
     12891 MEMB     112      CHL1     C5       CEL1      0.00000       12.0110           0
     12892 MEMB     112      CHL1     C6       CEL1    -0.150000       12.0110           0
     12893 MEMB     112      CHL1     H6       HEL1     0.150000       1.00800           0
     12894 MEMB     112      CHL1     C7       CRL2    -0.180000       12.0110           0
     12895 MEMB     112      CHL1     H7A      HGA2     0.900000E-01   1.00800           0
     12896 MEMB     112      CHL1     H7B      HGA2     0.900000E-01   1.00800           0
     12897 MEMB     112      CHL1     C8       CRL1    -0.900000E-01   12.0110           0
     12898 MEMB     112      CHL1     H8       HGA1     0.900000E-01   1.00800           0
     12899 MEMB     112      CHL1     C14      CRL1    -0.900000E-01   12.0110           0
     12900 MEMB     112      CHL1     H14      HGA1     0.900000E-01   1.00800           0
     12901 MEMB     112      CHL1     C15      CRL2    -0.180000       12.0110           0
     12902 MEMB     112      CHL1     H15A     HGA2     0.900000E-01   1.00800           0
     12903 MEMB     112      CHL1     H15B     HGA2     0.900000E-01   1.00800           0
     12904 MEMB     112      CHL1     C16      CRL2    -0.180000       12.0110           0
     12905 MEMB     112      CHL1     H16A     HGA2     0.900000E-01   1.00800           0
     12906 MEMB     112      CHL1     H16B     HGA2     0.900000E-01   1.00800           0
     12907 MEMB     112      CHL1     C17      CRL1    -0.900000E-01   12.0110           0
     12908 MEMB     112      CHL1     H17      HGA1     0.900000E-01   1.00800           0
     12909 MEMB     112      CHL1     C13      CRL1      0.00000       12.0110           0
     12910 MEMB     112      CHL1     C18      CTL3    -0.270000       12.0110           0
     12911 MEMB     112      CHL1     H18A     HAL3     0.900000E-01   1.00800           0
     12912 MEMB     112      CHL1     H18B     HAL3     0.900000E-01   1.00800           0
     12913 MEMB     112      CHL1     H18C     HAL3     0.900000E-01   1.00800           0
     12914 MEMB     112      CHL1     C12      CRL2    -0.180000       12.0110           0
     12915 MEMB     112      CHL1     H12A     HGA2     0.900000E-01   1.00800           0
     12916 MEMB     112      CHL1     H12B     HGA2     0.900000E-01   1.00800           0
     12917 MEMB     112      CHL1     C11      CRL2    -0.180000       12.0110           0
     12918 MEMB     112      CHL1     H11A     HGA2     0.900000E-01   1.00800           0
     12919 MEMB     112      CHL1     H11B     HGA2     0.900000E-01   1.00800           0
     12920 MEMB     112      CHL1     C9       CRL1    -0.900000E-01   12.0110           0
     12921 MEMB     112      CHL1     H9       HGA1     0.900000E-01   1.00800           0
     12922 MEMB     112      CHL1     C10      CRL1      0.00000       12.0110           0
     12923 MEMB     112      CHL1     C19      CTL3    -0.270000       12.0110           0
     12924 MEMB     112      CHL1     H19A     HAL3     0.900000E-01   1.00800           0
     12925 MEMB     112      CHL1     H19B     HAL3     0.900000E-01   1.00800           0
     12926 MEMB     112      CHL1     H19C     HAL3     0.900000E-01   1.00800           0
     12927 MEMB     112      CHL1     C1       CRL2    -0.180000       12.0110           0
     12928 MEMB     112      CHL1     H1A      HGA2     0.900000E-01   1.00800           0
     12929 MEMB     112      CHL1     H1B      HGA2     0.900000E-01   1.00800           0
     12930 MEMB     112      CHL1     C2       CRL2    -0.180000       12.0110           0
     12931 MEMB     112      CHL1     H2A      HGA2     0.900000E-01   1.00800           0
     12932 MEMB     112      CHL1     H2B      HGA2     0.900000E-01   1.00800           0
     12933 MEMB     112      CHL1     C20      CTL1    -0.900000E-01   12.0110           0
     12934 MEMB     112      CHL1     H20      HAL1     0.900000E-01   1.00800           0
     12935 MEMB     112      CHL1     C21      CTL3    -0.270000       12.0110           0
     12936 MEMB     112      CHL1     H21A     HAL3     0.900000E-01   1.00800           0
     12937 MEMB     112      CHL1     H21B     HAL3     0.900000E-01   1.00800           0
     12938 MEMB     112      CHL1     H21C     HAL3     0.900000E-01   1.00800           0
     12939 MEMB     112      CHL1     C22      CTL2    -0.180000       12.0110           0
     12940 MEMB     112      CHL1     H22A     HAL2     0.900000E-01   1.00800           0
     12941 MEMB     112      CHL1     H22B     HAL2     0.900000E-01   1.00800           0
     12942 MEMB     112      CHL1     C23      CTL2    -0.180000       12.0110           0
     12943 MEMB     112      CHL1     H23A     HAL2     0.900000E-01   1.00800           0
     12944 MEMB     112      CHL1     H23B     HAL2     0.900000E-01   1.00800           0
     12945 MEMB     112      CHL1     C24      CTL2    -0.180000       12.0110           0
     12946 MEMB     112      CHL1     H24A     HAL2     0.900000E-01   1.00800           0
     12947 MEMB     112      CHL1     H24B     HAL2     0.900000E-01   1.00800           0
     12948 MEMB     112      CHL1     C25      CTL1    -0.900000E-01   12.0110           0
     12949 MEMB     112      CHL1     H25      HAL1     0.900000E-01   1.00800           0
     12950 MEMB     112      CHL1     C26      CTL3    -0.270000       12.0110           0
     12951 MEMB     112      CHL1     H26A     HAL3     0.900000E-01   1.00800           0
     12952 MEMB     112      CHL1     H26B     HAL3     0.900000E-01   1.00800           0
     12953 MEMB     112      CHL1     H26C     HAL3     0.900000E-01   1.00800           0
     12954 MEMB     112      CHL1     C27      CTL3    -0.270000       12.0110           0
     12955 MEMB     112      CHL1     H27A     HAL3     0.900000E-01   1.00800           0
     12956 MEMB     112      CHL1     H27B     HAL3     0.900000E-01   1.00800           0
     12957 MEMB     112      CHL1     H27C     HAL3     0.900000E-01   1.00800           0
     12958 MEMB     113      CHL1     C3       CRL1     0.140000       12.0110           0
     12959 MEMB     113      CHL1     H3       HGA1     0.900000E-01   1.00800           0
     12960 MEMB     113      CHL1     O3       OHL     -0.660000       15.9994           0
     12961 MEMB     113      CHL1     H3'      HOL      0.430000       1.00800           0
     12962 MEMB     113      CHL1     C4       CRL2    -0.180000       12.0110           0
     12963 MEMB     113      CHL1     H4A      HGA2     0.900000E-01   1.00800           0
     12964 MEMB     113      CHL1     H4B      HGA2     0.900000E-01   1.00800           0
     12965 MEMB     113      CHL1     C5       CEL1      0.00000       12.0110           0
     12966 MEMB     113      CHL1     C6       CEL1    -0.150000       12.0110           0
     12967 MEMB     113      CHL1     H6       HEL1     0.150000       1.00800           0
     12968 MEMB     113      CHL1     C7       CRL2    -0.180000       12.0110           0
     12969 MEMB     113      CHL1     H7A      HGA2     0.900000E-01   1.00800           0
     12970 MEMB     113      CHL1     H7B      HGA2     0.900000E-01   1.00800           0
     12971 MEMB     113      CHL1     C8       CRL1    -0.900000E-01   12.0110           0
     12972 MEMB     113      CHL1     H8       HGA1     0.900000E-01   1.00800           0
     12973 MEMB     113      CHL1     C14      CRL1    -0.900000E-01   12.0110           0
     12974 MEMB     113      CHL1     H14      HGA1     0.900000E-01   1.00800           0
     12975 MEMB     113      CHL1     C15      CRL2    -0.180000       12.0110           0
     12976 MEMB     113      CHL1     H15A     HGA2     0.900000E-01   1.00800           0
     12977 MEMB     113      CHL1     H15B     HGA2     0.900000E-01   1.00800           0
     12978 MEMB     113      CHL1     C16      CRL2    -0.180000       12.0110           0
     12979 MEMB     113      CHL1     H16A     HGA2     0.900000E-01   1.00800           0
     12980 MEMB     113      CHL1     H16B     HGA2     0.900000E-01   1.00800           0
     12981 MEMB     113      CHL1     C17      CRL1    -0.900000E-01   12.0110           0
     12982 MEMB     113      CHL1     H17      HGA1     0.900000E-01   1.00800           0
     12983 MEMB     113      CHL1     C13      CRL1      0.00000       12.0110           0
     12984 MEMB     113      CHL1     C18      CTL3    -0.270000       12.0110           0
     12985 MEMB     113      CHL1     H18A     HAL3     0.900000E-01   1.00800           0
     12986 MEMB     113      CHL1     H18B     HAL3     0.900000E-01   1.00800           0
     12987 MEMB     113      CHL1     H18C     HAL3     0.900000E-01   1.00800           0
     12988 MEMB     113      CHL1     C12      CRL2    -0.180000       12.0110           0
     12989 MEMB     113      CHL1     H12A     HGA2     0.900000E-01   1.00800           0
     12990 MEMB     113      CHL1     H12B     HGA2     0.900000E-01   1.00800           0
     12991 MEMB     113      CHL1     C11      CRL2    -0.180000       12.0110           0
     12992 MEMB     113      CHL1     H11A     HGA2     0.900000E-01   1.00800           0
     12993 MEMB     113      CHL1     H11B     HGA2     0.900000E-01   1.00800           0
     12994 MEMB     113      CHL1     C9       CRL1    -0.900000E-01   12.0110           0
     12995 MEMB     113      CHL1     H9       HGA1     0.900000E-01   1.00800           0
     12996 MEMB     113      CHL1     C10      CRL1      0.00000       12.0110           0
     12997 MEMB     113      CHL1     C19      CTL3    -0.270000       12.0110           0
     12998 MEMB     113      CHL1     H19A     HAL3     0.900000E-01   1.00800           0
     12999 MEMB     113      CHL1     H19B     HAL3     0.900000E-01   1.00800           0
     13000 MEMB     113      CHL1     H19C     HAL3     0.900000E-01   1.00800           0
     13001 MEMB     113      CHL1     C1       CRL2    -0.180000       12.0110           0
     13002 MEMB     113      CHL1     H1A      HGA2     0.900000E-01   1.00800           0
     13003 MEMB     113      CHL1     H1B      HGA2     0.900000E-01   1.00800           0
     13004 MEMB     113      CHL1     C2       CRL2    -0.180000       12.0110           0
     13005 MEMB     113      CHL1     H2A      HGA2     0.900000E-01   1.00800           0
     13006 MEMB     113      CHL1     H2B      HGA2     0.900000E-01   1.00800           0
     13007 MEMB     113      CHL1     C20      CTL1    -0.900000E-01   12.0110           0
     13008 MEMB     113      CHL1     H20      HAL1     0.900000E-01   1.00800           0
     13009 MEMB     113      CHL1     C21      CTL3    -0.270000       12.0110           0
     13010 MEMB     113      CHL1     H21A     HAL3     0.900000E-01   1.00800           0
     13011 MEMB     113      CHL1     H21B     HAL3     0.900000E-01   1.00800           0
     13012 MEMB     113      CHL1     H21C     HAL3     0.900000E-01   1.00800           0
     13013 MEMB     113      CHL1     C22      CTL2    -0.180000       12.0110           0
     13014 MEMB     113      CHL1     H22A     HAL2     0.900000E-01   1.00800           0
     13015 MEMB     113      CHL1     H22B     HAL2     0.900000E-01   1.00800           0
     13016 MEMB     113      CHL1     C23      CTL2    -0.180000       12.0110           0
     13017 MEMB     113      CHL1     H23A     HAL2     0.900000E-01   1.00800           0
     13018 MEMB     113      CHL1     H23B     HAL2     0.900000E-01   1.00800           0
     13019 MEMB     113      CHL1     C24      CTL2    -0.180000       12.0110           0
     13020 MEMB     113      CHL1     H24A     HAL2     0.900000E-01   1.00800           0
     13021 MEMB     113      CHL1     H24B     HAL2     0.900000E-01   1.00800           0
     13022 MEMB     113      CHL1     C25      CTL1    -0.900000E-01   12.0110           0
     13023 MEMB     113      CHL1     H25      HAL1     0.900000E-01   1.00800           0
     13024 MEMB     113      CHL1     C26      CTL3    -0.270000       12.0110           0
     13025 MEMB     113      CHL1     H26A     HAL3     0.900000E-01   1.00800           0
     13026 MEMB     113      CHL1     H26B     HAL3     0.900000E-01   1.00800           0
     13027 MEMB     113      CHL1     H26C     HAL3     0.900000E-01   1.00800           0
     13028 MEMB     113      CHL1     C27      CTL3    -0.270000       12.0110           0
     13029 MEMB     113      CHL1     H27A     HAL3     0.900000E-01   1.00800           0
     13030 MEMB     113      CHL1     H27B     HAL3     0.900000E-01   1.00800           0
     13031 MEMB     113      CHL1     H27C     HAL3     0.900000E-01   1.00800           0
     13032 MEMB     114      SAPE     N        NH3L    -0.300000       14.0070           0
     13033 MEMB     114      SAPE     HN1      HCL      0.330000       1.00800           0
     13034 MEMB     114      SAPE     HN2      HCL      0.330000       1.00800           0
     13035 MEMB     114      SAPE     HN3      HCL      0.330000       1.00800           0
     13036 MEMB     114      SAPE     C12      CTL2     0.130000       12.0110           0
     13037 MEMB     114      SAPE     H12A     HAL2     0.900000E-01   1.00800           0
     13038 MEMB     114      SAPE     H12B     HAL2     0.900000E-01   1.00800           0
     13039 MEMB     114      SAPE     C11      CTL2    -0.800000E-01   12.0110           0
     13040 MEMB     114      SAPE     H11A     HAL2     0.900000E-01   1.00800           0
     13041 MEMB     114      SAPE     H11B     HAL2     0.900000E-01   1.00800           0
     13042 MEMB     114      SAPE     P        PL        1.50000       30.9740           0
     13043 MEMB     114      SAPE     O13      O2L     -0.780000       15.9994           0
     13044 MEMB     114      SAPE     O14      O2L     -0.780000       15.9994           0
     13045 MEMB     114      SAPE     O12      OSLP    -0.570000       15.9994           0
     13046 MEMB     114      SAPE     O11      OSLP    -0.570000       15.9994           0
     13047 MEMB     114      SAPE     C1       CTL2    -0.800000E-01   12.0110           0
     13048 MEMB     114      SAPE     HA       HAL2     0.900000E-01   1.00800           0
     13049 MEMB     114      SAPE     HB       HAL2     0.900000E-01   1.00800           0
     13050 MEMB     114      SAPE     C2       CTL1     0.170000       12.0110           0
     13051 MEMB     114      SAPE     HS       HAL1     0.900000E-01   1.00800           0
     13052 MEMB     114      SAPE     O21      OSL     -0.490000       15.9994           0
     13053 MEMB     114      SAPE     C21      CL       0.900000       12.0110           0
     13054 MEMB     114      SAPE     O22      OBL     -0.630000       15.9994           0
     13055 MEMB     114      SAPE     C22      CTL2    -0.220000       12.0110           0
     13056 MEMB     114      SAPE     H2R      HAL2     0.900000E-01   1.00800           0
     13057 MEMB     114      SAPE     H2S      HAL2     0.900000E-01   1.00800           0
     13058 MEMB     114      SAPE     C3       CTL2     0.800000E-01   12.0110           0
     13059 MEMB     114      SAPE     HX       HAL2     0.900000E-01   1.00800           0
     13060 MEMB     114      SAPE     HY       HAL2     0.900000E-01   1.00800           0
     13061 MEMB     114      SAPE     O31      OSL     -0.490000       15.9994           0
     13062 MEMB     114      SAPE     C31      CL       0.900000       12.0110           0
     13063 MEMB     114      SAPE     O32      OBL     -0.630000       15.9994           0
     13064 MEMB     114      SAPE     C32      CTL2    -0.220000       12.0110           0
     13065 MEMB     114      SAPE     H2X      HAL2     0.900000E-01   1.00800           0
     13066 MEMB     114      SAPE     H2Y      HAL2     0.900000E-01   1.00800           0
     13067 MEMB     114      SAPE     C23      CTL2    -0.180000       12.0110           0
     13068 MEMB     114      SAPE     H3R      HAL2     0.900000E-01   1.00800           0
     13069 MEMB     114      SAPE     H3S      HAL2     0.900000E-01   1.00800           0
     13070 MEMB     114      SAPE     C24      CTL2    -0.180000       12.0110           0
     13071 MEMB     114      SAPE     H4R      HAL2     0.900000E-01   1.00800           0
     13072 MEMB     114      SAPE     H4S      HAL2     0.900000E-01   1.00800           0
     13073 MEMB     114      SAPE     C25      CEL1    -0.150000       12.0110           0
     13074 MEMB     114      SAPE     H5R      HEL1     0.150000       1.00800           0
     13075 MEMB     114      SAPE     C26      CEL1    -0.150000       12.0110           0
     13076 MEMB     114      SAPE     H6R      HEL1     0.150000       1.00800           0
     13077 MEMB     114      SAPE     C27      CTL2    -0.180000       12.0110           0
     13078 MEMB     114      SAPE     H7R      HAL2     0.900000E-01   1.00800           0
     13079 MEMB     114      SAPE     H7S      HAL2     0.900000E-01   1.00800           0
     13080 MEMB     114      SAPE     C28      CEL1    -0.150000       12.0110           0
     13081 MEMB     114      SAPE     H8R      HEL1     0.150000       1.00800           0
     13082 MEMB     114      SAPE     C29      CEL1    -0.150000       12.0110           0
     13083 MEMB     114      SAPE     H9R      HEL1     0.150000       1.00800           0
     13084 MEMB     114      SAPE     C210     CTL2    -0.180000       12.0110           0
     13085 MEMB     114      SAPE     H10R     HAL2     0.900000E-01   1.00800           0
     13086 MEMB     114      SAPE     H10S     HAL2     0.900000E-01   1.00800           0
     13087 MEMB     114      SAPE     C211     CEL1    -0.150000       12.0110           0
     13088 MEMB     114      SAPE     H11R     HEL1     0.150000       1.00800           0
     13089 MEMB     114      SAPE     C212     CEL1    -0.150000       12.0110           0
     13090 MEMB     114      SAPE     H12R     HEL1     0.150000       1.00800           0
     13091 MEMB     114      SAPE     C213     CTL2    -0.180000       12.0110           0
     13092 MEMB     114      SAPE     H13R     HAL2     0.900000E-01   1.00800           0
     13093 MEMB     114      SAPE     H13S     HAL2     0.900000E-01   1.00800           0
     13094 MEMB     114      SAPE     C214     CEL1    -0.150000       12.0110           0
     13095 MEMB     114      SAPE     H14R     HEL1     0.150000       1.00800           0
     13096 MEMB     114      SAPE     C215     CEL1    -0.150000       12.0110           0
     13097 MEMB     114      SAPE     H15R     HEL1     0.150000       1.00800           0
     13098 MEMB     114      SAPE     C216     CTL2    -0.180000       12.0110           0
     13099 MEMB     114      SAPE     H16R     HAL2     0.900000E-01   1.00800           0
     13100 MEMB     114      SAPE     H16S     HAL2     0.900000E-01   1.00800           0
     13101 MEMB     114      SAPE     C217     CTL2    -0.180000       12.0110           0
     13102 MEMB     114      SAPE     H17R     HAL2     0.900000E-01   1.00800           0
     13103 MEMB     114      SAPE     H17S     HAL2     0.900000E-01   1.00800           0
     13104 MEMB     114      SAPE     C218     CTL2    -0.180000       12.0110           0
     13105 MEMB     114      SAPE     H18R     HAL2     0.900000E-01   1.00800           0
     13106 MEMB     114      SAPE     H18S     HAL2     0.900000E-01   1.00800           0
     13107 MEMB     114      SAPE     C219     CTL2    -0.180000       12.0110           0
     13108 MEMB     114      SAPE     H19R     HAL2     0.900000E-01   1.00800           0
     13109 MEMB     114      SAPE     H19S     HAL2     0.900000E-01   1.00800           0
     13110 MEMB     114      SAPE     C220     CTL3    -0.270000       12.0110           0
     13111 MEMB     114      SAPE     H20R     HAL3     0.900000E-01   1.00800           0
     13112 MEMB     114      SAPE     H20S     HAL3     0.900000E-01   1.00800           0
     13113 MEMB     114      SAPE     H20T     HAL3     0.900000E-01   1.00800           0
     13114 MEMB     114      SAPE     C33      CTL2    -0.180000       12.0110           0
     13115 MEMB     114      SAPE     H3X      HAL2     0.900000E-01   1.00800           0
     13116 MEMB     114      SAPE     H3Y      HAL2     0.900000E-01   1.00800           0
     13117 MEMB     114      SAPE     C34      CTL2    -0.180000       12.0110           0
     13118 MEMB     114      SAPE     H4X      HAL2     0.900000E-01   1.00800           0
     13119 MEMB     114      SAPE     H4Y      HAL2     0.900000E-01   1.00800           0
     13120 MEMB     114      SAPE     C35      CTL2    -0.180000       12.0110           0
     13121 MEMB     114      SAPE     H5X      HAL2     0.900000E-01   1.00800           0
     13122 MEMB     114      SAPE     H5Y      HAL2     0.900000E-01   1.00800           0
     13123 MEMB     114      SAPE     C36      CTL2    -0.180000       12.0110           0
     13124 MEMB     114      SAPE     H6X      HAL2     0.900000E-01   1.00800           0
     13125 MEMB     114      SAPE     H6Y      HAL2     0.900000E-01   1.00800           0
     13126 MEMB     114      SAPE     C37      CTL2    -0.180000       12.0110           0
     13127 MEMB     114      SAPE     H7X      HAL2     0.900000E-01   1.00800           0
     13128 MEMB     114      SAPE     H7Y      HAL2     0.900000E-01   1.00800           0
     13129 MEMB     114      SAPE     C38      CTL2    -0.180000       12.0110           0
     13130 MEMB     114      SAPE     H8X      HAL2     0.900000E-01   1.00800           0
     13131 MEMB     114      SAPE     H8Y      HAL2     0.900000E-01   1.00800           0
     13132 MEMB     114      SAPE     C39      CTL2    -0.180000       12.0110           0
     13133 MEMB     114      SAPE     H9X      HAL2     0.900000E-01   1.00800           0
     13134 MEMB     114      SAPE     H9Y      HAL2     0.900000E-01   1.00800           0
     13135 MEMB     114      SAPE     C310     CTL2    -0.180000       12.0110           0
     13136 MEMB     114      SAPE     H10X     HAL2     0.900000E-01   1.00800           0
     13137 MEMB     114      SAPE     H10Y     HAL2     0.900000E-01   1.00800           0
     13138 MEMB     114      SAPE     C311     CTL2    -0.180000       12.0110           0
     13139 MEMB     114      SAPE     H11X     HAL2     0.900000E-01   1.00800           0
     13140 MEMB     114      SAPE     H11Y     HAL2     0.900000E-01   1.00800           0
     13141 MEMB     114      SAPE     C312     CTL2    -0.180000       12.0110           0
     13142 MEMB     114      SAPE     H12X     HAL2     0.900000E-01   1.00800           0
     13143 MEMB     114      SAPE     H12Y     HAL2     0.900000E-01   1.00800           0
     13144 MEMB     114      SAPE     C313     CTL2    -0.180000       12.0110           0
     13145 MEMB     114      SAPE     H13X     HAL2     0.900000E-01   1.00800           0
     13146 MEMB     114      SAPE     H13Y     HAL2     0.900000E-01   1.00800           0
     13147 MEMB     114      SAPE     C314     CTL2    -0.180000       12.0110           0
     13148 MEMB     114      SAPE     H14X     HAL2     0.900000E-01   1.00800           0
     13149 MEMB     114      SAPE     H14Y     HAL2     0.900000E-01   1.00800           0
     13150 MEMB     114      SAPE     C315     CTL2    -0.180000       12.0110           0
     13151 MEMB     114      SAPE     H15X     HAL2     0.900000E-01   1.00800           0
     13152 MEMB     114      SAPE     H15Y     HAL2     0.900000E-01   1.00800           0
     13153 MEMB     114      SAPE     C316     CTL2    -0.180000       12.0110           0
     13154 MEMB     114      SAPE     H16X     HAL2     0.900000E-01   1.00800           0
     13155 MEMB     114      SAPE     H16Y     HAL2     0.900000E-01   1.00800           0
     13156 MEMB     114      SAPE     C317     CTL2    -0.180000       12.0110           0
     13157 MEMB     114      SAPE     H17X     HAL2     0.900000E-01   1.00800           0
     13158 MEMB     114      SAPE     H17Y     HAL2     0.900000E-01   1.00800           0
     13159 MEMB     114      SAPE     C318     CTL3    -0.270000       12.0110           0
     13160 MEMB     114      SAPE     H18X     HAL3     0.900000E-01   1.00800           0
     13161 MEMB     114      SAPE     H18Y     HAL3     0.900000E-01   1.00800           0
     13162 MEMB     114      SAPE     H18Z     HAL3     0.900000E-01   1.00800           0
     13163 MEMB     115      OSM      N        NTL     -0.600000       14.0070           0
     13164 MEMB     115      OSM      C15      CTL5    -0.350000       12.0110           0
     13165 MEMB     115      OSM      H15A     HL       0.250000       1.00800           0
     13166 MEMB     115      OSM      H15B     HL       0.250000       1.00800           0
     13167 MEMB     115      OSM      H15C     HL       0.250000       1.00800           0
     13168 MEMB     115      OSM      C14      CTL5    -0.350000       12.0110           0
     13169 MEMB     115      OSM      H14A     HL       0.250000       1.00800           0
     13170 MEMB     115      OSM      H14B     HL       0.250000       1.00800           0
     13171 MEMB     115      OSM      H14C     HL       0.250000       1.00800           0
     13172 MEMB     115      OSM      C13      CTL5    -0.350000       12.0110           0
     13173 MEMB     115      OSM      H13A     HL       0.250000       1.00800           0
     13174 MEMB     115      OSM      H13B     HL       0.250000       1.00800           0
     13175 MEMB     115      OSM      H13C     HL       0.250000       1.00800           0
     13176 MEMB     115      OSM      C12      CTL2    -0.100000       12.0110           0
     13177 MEMB     115      OSM      H12A     HL       0.250000       1.00800           0
     13178 MEMB     115      OSM      H12B     HL       0.250000       1.00800           0
     13179 MEMB     115      OSM      C11      CTL2    -0.800000E-01   12.0110           0
     13180 MEMB     115      OSM      H11A     HAL2     0.900000E-01   1.00800           0
     13181 MEMB     115      OSM      H11B     HAL2     0.900000E-01   1.00800           0
     13182 MEMB     115      OSM      P        PL        1.50000       30.9740           0
     13183 MEMB     115      OSM      O13      O2L     -0.780000       15.9994           0
     13184 MEMB     115      OSM      O14      O2L     -0.780000       15.9994           0
     13185 MEMB     115      OSM      O11      OSLP    -0.570000       15.9994           0
     13186 MEMB     115      OSM      O12      OSLP    -0.570000       15.9994           0
     13187 MEMB     115      OSM      C1S      CTL2    -0.800000E-01   12.0110           0
     13188 MEMB     115      OSM      H1S      HAL2     0.900000E-01   1.00800           0
     13189 MEMB     115      OSM      H1T      HAL2     0.900000E-01   1.00800           0
     13190 MEMB     115      OSM      NF       NHL     -0.700000       14.0070           0
     13191 MEMB     115      OSM      HNF      H        0.350000       1.00800           0
     13192 MEMB     115      OSM      C2S      CTL1     0.300000       12.0110           0
     13193 MEMB     115      OSM      H2S      HAL1     0.500000E-01   1.00800           0
     13194 MEMB     115      OSM      C3S      CTO1     0.500000       12.0110           0
     13195 MEMB     115      OSM      H3S      HAL1    -0.110000       1.00800           0
     13196 MEMB     115      OSM      O3       OHL     -0.690000       15.9994           0
     13197 MEMB     115      OSM      HO3      HOL      0.300000       1.00800           0
     13198 MEMB     115      OSM      C4S      CEL3    -0.150000       12.0110           0
     13199 MEMB     115      OSM      H4S      HEL1     0.150000       1.00800           0
     13200 MEMB     115      OSM      C5S      CEL3    -0.150000       12.0110           0
     13201 MEMB     115      OSM      H5S      HEL1     0.150000       1.00800           0
     13202 MEMB     115      OSM      C6S      CTL2    -0.180000       12.0110           0
     13203 MEMB     115      OSM      H6S      HAL2     0.900000E-01   1.00800           0
     13204 MEMB     115      OSM      H6T      HAL2     0.900000E-01   1.00800           0
     13205 MEMB     115      OSM      C7S      CTL2    -0.180000       12.0110           0
     13206 MEMB     115      OSM      H7S      HAL2     0.900000E-01   1.00800           0
     13207 MEMB     115      OSM      H7T      HAL2     0.900000E-01   1.00800           0
     13208 MEMB     115      OSM      C8S      CTL2    -0.180000       12.0110           0
     13209 MEMB     115      OSM      H8S      HAL2     0.900000E-01   1.00800           0
     13210 MEMB     115      OSM      H8T      HAL2     0.900000E-01   1.00800           0
     13211 MEMB     115      OSM      C9S      CTL2    -0.180000       12.0110           0
     13212 MEMB     115      OSM      H9S      HAL2     0.900000E-01   1.00800           0
     13213 MEMB     115      OSM      H9T      HAL2     0.900000E-01   1.00800           0
     13214 MEMB     115      OSM      C10S     CTL2    -0.180000       12.0110           0
     13215 MEMB     115      OSM      H10S     HAL2     0.900000E-01   1.00800           0
     13216 MEMB     115      OSM      H10T     HAL2     0.900000E-01   1.00800           0
     13217 MEMB     115      OSM      C11S     CTL2    -0.180000       12.0110           0
     13218 MEMB     115      OSM      H11S     HAL2     0.900000E-01   1.00800           0
     13219 MEMB     115      OSM      H11T     HAL2     0.900000E-01   1.00800           0
     13220 MEMB     115      OSM      C12S     CTL2    -0.180000       12.0110           0
     13221 MEMB     115      OSM      H12S     HAL2     0.900000E-01   1.00800           0
     13222 MEMB     115      OSM      H12T     HAL2     0.900000E-01   1.00800           0
     13223 MEMB     115      OSM      C13S     CTL2    -0.180000       12.0110           0
     13224 MEMB     115      OSM      H13S     HAL2     0.900000E-01   1.00800           0
     13225 MEMB     115      OSM      H13T     HAL2     0.900000E-01   1.00800           0
     13226 MEMB     115      OSM      C14S     CTL2    -0.180000       12.0110           0
     13227 MEMB     115      OSM      H14S     HAL2     0.900000E-01   1.00800           0
     13228 MEMB     115      OSM      H14T     HAL2     0.900000E-01   1.00800           0
     13229 MEMB     115      OSM      C15S     CTL2    -0.180000       12.0110           0
     13230 MEMB     115      OSM      H15S     HAL2     0.900000E-01   1.00800           0
     13231 MEMB     115      OSM      H15T     HAL2     0.900000E-01   1.00800           0
     13232 MEMB     115      OSM      C16S     CTL2    -0.180000       12.0110           0
     13233 MEMB     115      OSM      H16S     HAL2     0.900000E-01   1.00800           0
     13234 MEMB     115      OSM      H16T     HAL2     0.900000E-01   1.00800           0
     13235 MEMB     115      OSM      C17S     CTL2    -0.180000       12.0110           0
     13236 MEMB     115      OSM      H17S     HAL2     0.900000E-01   1.00800           0
     13237 MEMB     115      OSM      H17T     HAL2     0.900000E-01   1.00800           0
     13238 MEMB     115      OSM      C18S     CTL3    -0.270000       12.0110           0
     13239 MEMB     115      OSM      H18S     HAL3     0.900000E-01   1.00800           0
     13240 MEMB     115      OSM      H18T     HAL3     0.900000E-01   1.00800           0
     13241 MEMB     115      OSM      H18U     HAL3     0.900000E-01   1.00800           0
     13242 MEMB     115      OSM      C1F      C        0.550000       12.0110           0
     13243 MEMB     115      OSM      OF       O       -0.600000       15.9994           0
     13244 MEMB     115      OSM      C2F      CTL2    -0.700000E-01   12.0110           0
     13245 MEMB     115      OSM      H2F      HAL2     0.600000E-01   1.00800           0
     13246 MEMB     115      OSM      H2G      HAL2     0.600000E-01   1.00800           0
     13247 MEMB     115      OSM      C3F      CTL2    -0.180000       12.0110           0
     13248 MEMB     115      OSM      H3F      HAL2     0.900000E-01   1.00800           0
     13249 MEMB     115      OSM      H3G      HAL2     0.900000E-01   1.00800           0
     13250 MEMB     115      OSM      C4F      CTL2    -0.180000       12.0110           0
     13251 MEMB     115      OSM      H4F      HAL2     0.900000E-01   1.00800           0
     13252 MEMB     115      OSM      H4G      HAL2     0.900000E-01   1.00800           0
     13253 MEMB     115      OSM      C5F      CTL2    -0.180000       12.0110           0
     13254 MEMB     115      OSM      H5F      HAL2     0.900000E-01   1.00800           0
     13255 MEMB     115      OSM      H5G      HAL2     0.900000E-01   1.00800           0
     13256 MEMB     115      OSM      C6F      CTL2    -0.180000       12.0110           0
     13257 MEMB     115      OSM      H6F      HAL2     0.900000E-01   1.00800           0
     13258 MEMB     115      OSM      H6G      HAL2     0.900000E-01   1.00800           0
     13259 MEMB     115      OSM      C7F      CTL2    -0.180000       12.0110           0
     13260 MEMB     115      OSM      H7F      HAL2     0.900000E-01   1.00800           0
     13261 MEMB     115      OSM      H7G      HAL2     0.900000E-01   1.00800           0
     13262 MEMB     115      OSM      C8F      CTL2    -0.180000       12.0110           0
     13263 MEMB     115      OSM      H8F      HAL2     0.900000E-01   1.00800           0
     13264 MEMB     115      OSM      H8G      HAL2     0.900000E-01   1.00800           0
     13265 MEMB     115      OSM      C9F      CEL1    -0.150000       12.0110           0
     13266 MEMB     115      OSM      H9F      HEL1     0.150000       1.00800           0
     13267 MEMB     115      OSM      C10F     CEL1    -0.150000       12.0110           0
     13268 MEMB     115      OSM      H10F     HEL1     0.150000       1.00800           0
     13269 MEMB     115      OSM      C11F     CTL2    -0.180000       12.0110           0
     13270 MEMB     115      OSM      H11F     HAL2     0.900000E-01   1.00800           0
     13271 MEMB     115      OSM      H11G     HAL2     0.900000E-01   1.00800           0
     13272 MEMB     115      OSM      C12F     CTL2    -0.180000       12.0110           0
     13273 MEMB     115      OSM      H12F     HAL2     0.900000E-01   1.00800           0
     13274 MEMB     115      OSM      H12G     HAL2     0.900000E-01   1.00800           0
     13275 MEMB     115      OSM      C13F     CTL2    -0.180000       12.0110           0
     13276 MEMB     115      OSM      H13F     HAL2     0.900000E-01   1.00800           0
     13277 MEMB     115      OSM      H13G     HAL2     0.900000E-01   1.00800           0
     13278 MEMB     115      OSM      C14F     CTL2    -0.180000       12.0110           0
     13279 MEMB     115      OSM      H14F     HAL2     0.900000E-01   1.00800           0
     13280 MEMB     115      OSM      H14G     HAL2     0.900000E-01   1.00800           0
     13281 MEMB     115      OSM      C15F     CTL2    -0.180000       12.0110           0
     13282 MEMB     115      OSM      H15F     HAL2     0.900000E-01   1.00800           0
     13283 MEMB     115      OSM      H15G     HAL2     0.900000E-01   1.00800           0
     13284 MEMB     115      OSM      C16F     CTL2    -0.180000       12.0110           0
     13285 MEMB     115      OSM      H16F     HAL2     0.900000E-01   1.00800           0
     13286 MEMB     115      OSM      H16G     HAL2     0.900000E-01   1.00800           0
     13287 MEMB     115      OSM      C17F     CTL2    -0.180000       12.0110           0
     13288 MEMB     115      OSM      H17F     HAL2     0.900000E-01   1.00800           0
     13289 MEMB     115      OSM      H17G     HAL2     0.900000E-01   1.00800           0
     13290 MEMB     115      OSM      C18F     CTL3    -0.270000       12.0110           0
     13291 MEMB     115      OSM      H18F     HAL3     0.900000E-01   1.00800           0
     13292 MEMB     115      OSM      H18G     HAL3     0.900000E-01   1.00800           0
     13293 MEMB     115      OSM      H18H     HAL3     0.900000E-01   1.00800           0
     13294 MEMB     116      OSM      N        NTL     -0.600000       14.0070           0
     13295 MEMB     116      OSM      C15      CTL5    -0.350000       12.0110           0
     13296 MEMB     116      OSM      H15A     HL       0.250000       1.00800           0
     13297 MEMB     116      OSM      H15B     HL       0.250000       1.00800           0
     13298 MEMB     116      OSM      H15C     HL       0.250000       1.00800           0
     13299 MEMB     116      OSM      C14      CTL5    -0.350000       12.0110           0
     13300 MEMB     116      OSM      H14A     HL       0.250000       1.00800           0
     13301 MEMB     116      OSM      H14B     HL       0.250000       1.00800           0
     13302 MEMB     116      OSM      H14C     HL       0.250000       1.00800           0
     13303 MEMB     116      OSM      C13      CTL5    -0.350000       12.0110           0
     13304 MEMB     116      OSM      H13A     HL       0.250000       1.00800           0
     13305 MEMB     116      OSM      H13B     HL       0.250000       1.00800           0
     13306 MEMB     116      OSM      H13C     HL       0.250000       1.00800           0
     13307 MEMB     116      OSM      C12      CTL2    -0.100000       12.0110           0
     13308 MEMB     116      OSM      H12A     HL       0.250000       1.00800           0
     13309 MEMB     116      OSM      H12B     HL       0.250000       1.00800           0
     13310 MEMB     116      OSM      C11      CTL2    -0.800000E-01   12.0110           0
     13311 MEMB     116      OSM      H11A     HAL2     0.900000E-01   1.00800           0
     13312 MEMB     116      OSM      H11B     HAL2     0.900000E-01   1.00800           0
     13313 MEMB     116      OSM      P        PL        1.50000       30.9740           0
     13314 MEMB     116      OSM      O13      O2L     -0.780000       15.9994           0
     13315 MEMB     116      OSM      O14      O2L     -0.780000       15.9994           0
     13316 MEMB     116      OSM      O11      OSLP    -0.570000       15.9994           0
     13317 MEMB     116      OSM      O12      OSLP    -0.570000       15.9994           0
     13318 MEMB     116      OSM      C1S      CTL2    -0.800000E-01   12.0110           0
     13319 MEMB     116      OSM      H1S      HAL2     0.900000E-01   1.00800           0
     13320 MEMB     116      OSM      H1T      HAL2     0.900000E-01   1.00800           0
     13321 MEMB     116      OSM      NF       NHL     -0.700000       14.0070           0
     13322 MEMB     116      OSM      HNF      H        0.350000       1.00800           0
     13323 MEMB     116      OSM      C2S      CTL1     0.300000       12.0110           0
     13324 MEMB     116      OSM      H2S      HAL1     0.500000E-01   1.00800           0
     13325 MEMB     116      OSM      C3S      CTO1     0.500000       12.0110           0
     13326 MEMB     116      OSM      H3S      HAL1    -0.110000       1.00800           0
     13327 MEMB     116      OSM      O3       OHL     -0.690000       15.9994           0
     13328 MEMB     116      OSM      HO3      HOL      0.300000       1.00800           0
     13329 MEMB     116      OSM      C4S      CEL3    -0.150000       12.0110           0
     13330 MEMB     116      OSM      H4S      HEL1     0.150000       1.00800           0
     13331 MEMB     116      OSM      C5S      CEL3    -0.150000       12.0110           0
     13332 MEMB     116      OSM      H5S      HEL1     0.150000       1.00800           0
     13333 MEMB     116      OSM      C6S      CTL2    -0.180000       12.0110           0
     13334 MEMB     116      OSM      H6S      HAL2     0.900000E-01   1.00800           0
     13335 MEMB     116      OSM      H6T      HAL2     0.900000E-01   1.00800           0
     13336 MEMB     116      OSM      C7S      CTL2    -0.180000       12.0110           0
     13337 MEMB     116      OSM      H7S      HAL2     0.900000E-01   1.00800           0
     13338 MEMB     116      OSM      H7T      HAL2     0.900000E-01   1.00800           0
     13339 MEMB     116      OSM      C8S      CTL2    -0.180000       12.0110           0
     13340 MEMB     116      OSM      H8S      HAL2     0.900000E-01   1.00800           0
     13341 MEMB     116      OSM      H8T      HAL2     0.900000E-01   1.00800           0
     13342 MEMB     116      OSM      C9S      CTL2    -0.180000       12.0110           0
     13343 MEMB     116      OSM      H9S      HAL2     0.900000E-01   1.00800           0
     13344 MEMB     116      OSM      H9T      HAL2     0.900000E-01   1.00800           0
     13345 MEMB     116      OSM      C10S     CTL2    -0.180000       12.0110           0
     13346 MEMB     116      OSM      H10S     HAL2     0.900000E-01   1.00800           0
     13347 MEMB     116      OSM      H10T     HAL2     0.900000E-01   1.00800           0
     13348 MEMB     116      OSM      C11S     CTL2    -0.180000       12.0110           0
     13349 MEMB     116      OSM      H11S     HAL2     0.900000E-01   1.00800           0
     13350 MEMB     116      OSM      H11T     HAL2     0.900000E-01   1.00800           0
     13351 MEMB     116      OSM      C12S     CTL2    -0.180000       12.0110           0
     13352 MEMB     116      OSM      H12S     HAL2     0.900000E-01   1.00800           0
     13353 MEMB     116      OSM      H12T     HAL2     0.900000E-01   1.00800           0
     13354 MEMB     116      OSM      C13S     CTL2    -0.180000       12.0110           0
     13355 MEMB     116      OSM      H13S     HAL2     0.900000E-01   1.00800           0
     13356 MEMB     116      OSM      H13T     HAL2     0.900000E-01   1.00800           0
     13357 MEMB     116      OSM      C14S     CTL2    -0.180000       12.0110           0
     13358 MEMB     116      OSM      H14S     HAL2     0.900000E-01   1.00800           0
     13359 MEMB     116      OSM      H14T     HAL2     0.900000E-01   1.00800           0
     13360 MEMB     116      OSM      C15S     CTL2    -0.180000       12.0110           0
     13361 MEMB     116      OSM      H15S     HAL2     0.900000E-01   1.00800           0
     13362 MEMB     116      OSM      H15T     HAL2     0.900000E-01   1.00800           0
     13363 MEMB     116      OSM      C16S     CTL2    -0.180000       12.0110           0
     13364 MEMB     116      OSM      H16S     HAL2     0.900000E-01   1.00800           0
     13365 MEMB     116      OSM      H16T     HAL2     0.900000E-01   1.00800           0
     13366 MEMB     116      OSM      C17S     CTL2    -0.180000       12.0110           0
     13367 MEMB     116      OSM      H17S     HAL2     0.900000E-01   1.00800           0
     13368 MEMB     116      OSM      H17T     HAL2     0.900000E-01   1.00800           0
     13369 MEMB     116      OSM      C18S     CTL3    -0.270000       12.0110           0
     13370 MEMB     116      OSM      H18S     HAL3     0.900000E-01   1.00800           0
     13371 MEMB     116      OSM      H18T     HAL3     0.900000E-01   1.00800           0
     13372 MEMB     116      OSM      H18U     HAL3     0.900000E-01   1.00800           0
     13373 MEMB     116      OSM      C1F      C        0.550000       12.0110           0
     13374 MEMB     116      OSM      OF       O       -0.600000       15.9994           0
     13375 MEMB     116      OSM      C2F      CTL2    -0.700000E-01   12.0110           0
     13376 MEMB     116      OSM      H2F      HAL2     0.600000E-01   1.00800           0
     13377 MEMB     116      OSM      H2G      HAL2     0.600000E-01   1.00800           0
     13378 MEMB     116      OSM      C3F      CTL2    -0.180000       12.0110           0
     13379 MEMB     116      OSM      H3F      HAL2     0.900000E-01   1.00800           0
     13380 MEMB     116      OSM      H3G      HAL2     0.900000E-01   1.00800           0
     13381 MEMB     116      OSM      C4F      CTL2    -0.180000       12.0110           0
     13382 MEMB     116      OSM      H4F      HAL2     0.900000E-01   1.00800           0
     13383 MEMB     116      OSM      H4G      HAL2     0.900000E-01   1.00800           0
     13384 MEMB     116      OSM      C5F      CTL2    -0.180000       12.0110           0
     13385 MEMB     116      OSM      H5F      HAL2     0.900000E-01   1.00800           0
     13386 MEMB     116      OSM      H5G      HAL2     0.900000E-01   1.00800           0
     13387 MEMB     116      OSM      C6F      CTL2    -0.180000       12.0110           0
     13388 MEMB     116      OSM      H6F      HAL2     0.900000E-01   1.00800           0
     13389 MEMB     116      OSM      H6G      HAL2     0.900000E-01   1.00800           0
     13390 MEMB     116      OSM      C7F      CTL2    -0.180000       12.0110           0
     13391 MEMB     116      OSM      H7F      HAL2     0.900000E-01   1.00800           0
     13392 MEMB     116      OSM      H7G      HAL2     0.900000E-01   1.00800           0
     13393 MEMB     116      OSM      C8F      CTL2    -0.180000       12.0110           0
     13394 MEMB     116      OSM      H8F      HAL2     0.900000E-01   1.00800           0
     13395 MEMB     116      OSM      H8G      HAL2     0.900000E-01   1.00800           0
     13396 MEMB     116      OSM      C9F      CEL1    -0.150000       12.0110           0
     13397 MEMB     116      OSM      H9F      HEL1     0.150000       1.00800           0
     13398 MEMB     116      OSM      C10F     CEL1    -0.150000       12.0110           0
     13399 MEMB     116      OSM      H10F     HEL1     0.150000       1.00800           0
     13400 MEMB     116      OSM      C11F     CTL2    -0.180000       12.0110           0
     13401 MEMB     116      OSM      H11F     HAL2     0.900000E-01   1.00800           0
     13402 MEMB     116      OSM      H11G     HAL2     0.900000E-01   1.00800           0
     13403 MEMB     116      OSM      C12F     CTL2    -0.180000       12.0110           0
     13404 MEMB     116      OSM      H12F     HAL2     0.900000E-01   1.00800           0
     13405 MEMB     116      OSM      H12G     HAL2     0.900000E-01   1.00800           0
     13406 MEMB     116      OSM      C13F     CTL2    -0.180000       12.0110           0
     13407 MEMB     116      OSM      H13F     HAL2     0.900000E-01   1.00800           0
     13408 MEMB     116      OSM      H13G     HAL2     0.900000E-01   1.00800           0
     13409 MEMB     116      OSM      C14F     CTL2    -0.180000       12.0110           0
     13410 MEMB     116      OSM      H14F     HAL2     0.900000E-01   1.00800           0
     13411 MEMB     116      OSM      H14G     HAL2     0.900000E-01   1.00800           0
     13412 MEMB     116      OSM      C15F     CTL2    -0.180000       12.0110           0
     13413 MEMB     116      OSM      H15F     HAL2     0.900000E-01   1.00800           0
     13414 MEMB     116      OSM      H15G     HAL2     0.900000E-01   1.00800           0
     13415 MEMB     116      OSM      C16F     CTL2    -0.180000       12.0110           0
     13416 MEMB     116      OSM      H16F     HAL2     0.900000E-01   1.00800           0
     13417 MEMB     116      OSM      H16G     HAL2     0.900000E-01   1.00800           0
     13418 MEMB     116      OSM      C17F     CTL2    -0.180000       12.0110           0
     13419 MEMB     116      OSM      H17F     HAL2     0.900000E-01   1.00800           0
     13420 MEMB     116      OSM      H17G     HAL2     0.900000E-01   1.00800           0
     13421 MEMB     116      OSM      C18F     CTL3    -0.270000       12.0110           0
     13422 MEMB     116      OSM      H18F     HAL3     0.900000E-01   1.00800           0
     13423 MEMB     116      OSM      H18G     HAL3     0.900000E-01   1.00800           0
     13424 MEMB     116      OSM      H18H     HAL3     0.900000E-01   1.00800           0
     13425 MEMB     117      OSM      N        NTL     -0.600000       14.0070           0
     13426 MEMB     117      OSM      C15      CTL5    -0.350000       12.0110           0
     13427 MEMB     117      OSM      H15A     HL       0.250000       1.00800           0
     13428 MEMB     117      OSM      H15B     HL       0.250000       1.00800           0
     13429 MEMB     117      OSM      H15C     HL       0.250000       1.00800           0
     13430 MEMB     117      OSM      C14      CTL5    -0.350000       12.0110           0
     13431 MEMB     117      OSM      H14A     HL       0.250000       1.00800           0
     13432 MEMB     117      OSM      H14B     HL       0.250000       1.00800           0
     13433 MEMB     117      OSM      H14C     HL       0.250000       1.00800           0
     13434 MEMB     117      OSM      C13      CTL5    -0.350000       12.0110           0
     13435 MEMB     117      OSM      H13A     HL       0.250000       1.00800           0
     13436 MEMB     117      OSM      H13B     HL       0.250000       1.00800           0
     13437 MEMB     117      OSM      H13C     HL       0.250000       1.00800           0
     13438 MEMB     117      OSM      C12      CTL2    -0.100000       12.0110           0
     13439 MEMB     117      OSM      H12A     HL       0.250000       1.00800           0
     13440 MEMB     117      OSM      H12B     HL       0.250000       1.00800           0
     13441 MEMB     117      OSM      C11      CTL2    -0.800000E-01   12.0110           0
     13442 MEMB     117      OSM      H11A     HAL2     0.900000E-01   1.00800           0
     13443 MEMB     117      OSM      H11B     HAL2     0.900000E-01   1.00800           0
     13444 MEMB     117      OSM      P        PL        1.50000       30.9740           0
     13445 MEMB     117      OSM      O13      O2L     -0.780000       15.9994           0
     13446 MEMB     117      OSM      O14      O2L     -0.780000       15.9994           0
     13447 MEMB     117      OSM      O11      OSLP    -0.570000       15.9994           0
     13448 MEMB     117      OSM      O12      OSLP    -0.570000       15.9994           0
     13449 MEMB     117      OSM      C1S      CTL2    -0.800000E-01   12.0110           0
     13450 MEMB     117      OSM      H1S      HAL2     0.900000E-01   1.00800           0
     13451 MEMB     117      OSM      H1T      HAL2     0.900000E-01   1.00800           0
     13452 MEMB     117      OSM      NF       NHL     -0.700000       14.0070           0
     13453 MEMB     117      OSM      HNF      H        0.350000       1.00800           0
     13454 MEMB     117      OSM      C2S      CTL1     0.300000       12.0110           0
     13455 MEMB     117      OSM      H2S      HAL1     0.500000E-01   1.00800           0
     13456 MEMB     117      OSM      C3S      CTO1     0.500000       12.0110           0
     13457 MEMB     117      OSM      H3S      HAL1    -0.110000       1.00800           0
     13458 MEMB     117      OSM      O3       OHL     -0.690000       15.9994           0
     13459 MEMB     117      OSM      HO3      HOL      0.300000       1.00800           0
     13460 MEMB     117      OSM      C4S      CEL3    -0.150000       12.0110           0
     13461 MEMB     117      OSM      H4S      HEL1     0.150000       1.00800           0
     13462 MEMB     117      OSM      C5S      CEL3    -0.150000       12.0110           0
     13463 MEMB     117      OSM      H5S      HEL1     0.150000       1.00800           0
     13464 MEMB     117      OSM      C6S      CTL2    -0.180000       12.0110           0
     13465 MEMB     117      OSM      H6S      HAL2     0.900000E-01   1.00800           0
     13466 MEMB     117      OSM      H6T      HAL2     0.900000E-01   1.00800           0
     13467 MEMB     117      OSM      C7S      CTL2    -0.180000       12.0110           0
     13468 MEMB     117      OSM      H7S      HAL2     0.900000E-01   1.00800           0
     13469 MEMB     117      OSM      H7T      HAL2     0.900000E-01   1.00800           0
     13470 MEMB     117      OSM      C8S      CTL2    -0.180000       12.0110           0
     13471 MEMB     117      OSM      H8S      HAL2     0.900000E-01   1.00800           0
     13472 MEMB     117      OSM      H8T      HAL2     0.900000E-01   1.00800           0
     13473 MEMB     117      OSM      C9S      CTL2    -0.180000       12.0110           0
     13474 MEMB     117      OSM      H9S      HAL2     0.900000E-01   1.00800           0
     13475 MEMB     117      OSM      H9T      HAL2     0.900000E-01   1.00800           0
     13476 MEMB     117      OSM      C10S     CTL2    -0.180000       12.0110           0
     13477 MEMB     117      OSM      H10S     HAL2     0.900000E-01   1.00800           0
     13478 MEMB     117      OSM      H10T     HAL2     0.900000E-01   1.00800           0
     13479 MEMB     117      OSM      C11S     CTL2    -0.180000       12.0110           0
     13480 MEMB     117      OSM      H11S     HAL2     0.900000E-01   1.00800           0
     13481 MEMB     117      OSM      H11T     HAL2     0.900000E-01   1.00800           0
     13482 MEMB     117      OSM      C12S     CTL2    -0.180000       12.0110           0
     13483 MEMB     117      OSM      H12S     HAL2     0.900000E-01   1.00800           0
     13484 MEMB     117      OSM      H12T     HAL2     0.900000E-01   1.00800           0
     13485 MEMB     117      OSM      C13S     CTL2    -0.180000       12.0110           0
     13486 MEMB     117      OSM      H13S     HAL2     0.900000E-01   1.00800           0
     13487 MEMB     117      OSM      H13T     HAL2     0.900000E-01   1.00800           0
     13488 MEMB     117      OSM      C14S     CTL2    -0.180000       12.0110           0
     13489 MEMB     117      OSM      H14S     HAL2     0.900000E-01   1.00800           0
     13490 MEMB     117      OSM      H14T     HAL2     0.900000E-01   1.00800           0
     13491 MEMB     117      OSM      C15S     CTL2    -0.180000       12.0110           0
     13492 MEMB     117      OSM      H15S     HAL2     0.900000E-01   1.00800           0
     13493 MEMB     117      OSM      H15T     HAL2     0.900000E-01   1.00800           0
     13494 MEMB     117      OSM      C16S     CTL2    -0.180000       12.0110           0
     13495 MEMB     117      OSM      H16S     HAL2     0.900000E-01   1.00800           0
     13496 MEMB     117      OSM      H16T     HAL2     0.900000E-01   1.00800           0
     13497 MEMB     117      OSM      C17S     CTL2    -0.180000       12.0110           0
     13498 MEMB     117      OSM      H17S     HAL2     0.900000E-01   1.00800           0
     13499 MEMB     117      OSM      H17T     HAL2     0.900000E-01   1.00800           0
     13500 MEMB     117      OSM      C18S     CTL3    -0.270000       12.0110           0
     13501 MEMB     117      OSM      H18S     HAL3     0.900000E-01   1.00800           0
     13502 MEMB     117      OSM      H18T     HAL3     0.900000E-01   1.00800           0
     13503 MEMB     117      OSM      H18U     HAL3     0.900000E-01   1.00800           0
     13504 MEMB     117      OSM      C1F      C        0.550000       12.0110           0
     13505 MEMB     117      OSM      OF       O       -0.600000       15.9994           0
     13506 MEMB     117      OSM      C2F      CTL2    -0.700000E-01   12.0110           0
     13507 MEMB     117      OSM      H2F      HAL2     0.600000E-01   1.00800           0
     13508 MEMB     117      OSM      H2G      HAL2     0.600000E-01   1.00800           0
     13509 MEMB     117      OSM      C3F      CTL2    -0.180000       12.0110           0
     13510 MEMB     117      OSM      H3F      HAL2     0.900000E-01   1.00800           0
     13511 MEMB     117      OSM      H3G      HAL2     0.900000E-01   1.00800           0
     13512 MEMB     117      OSM      C4F      CTL2    -0.180000       12.0110           0
     13513 MEMB     117      OSM      H4F      HAL2     0.900000E-01   1.00800           0
     13514 MEMB     117      OSM      H4G      HAL2     0.900000E-01   1.00800           0
     13515 MEMB     117      OSM      C5F      CTL2    -0.180000       12.0110           0
     13516 MEMB     117      OSM      H5F      HAL2     0.900000E-01   1.00800           0
     13517 MEMB     117      OSM      H5G      HAL2     0.900000E-01   1.00800           0
     13518 MEMB     117      OSM      C6F      CTL2    -0.180000       12.0110           0
     13519 MEMB     117      OSM      H6F      HAL2     0.900000E-01   1.00800           0
     13520 MEMB     117      OSM      H6G      HAL2     0.900000E-01   1.00800           0
     13521 MEMB     117      OSM      C7F      CTL2    -0.180000       12.0110           0
     13522 MEMB     117      OSM      H7F      HAL2     0.900000E-01   1.00800           0
     13523 MEMB     117      OSM      H7G      HAL2     0.900000E-01   1.00800           0
     13524 MEMB     117      OSM      C8F      CTL2    -0.180000       12.0110           0
     13525 MEMB     117      OSM      H8F      HAL2     0.900000E-01   1.00800           0
     13526 MEMB     117      OSM      H8G      HAL2     0.900000E-01   1.00800           0
     13527 MEMB     117      OSM      C9F      CEL1    -0.150000       12.0110           0
     13528 MEMB     117      OSM      H9F      HEL1     0.150000       1.00800           0
     13529 MEMB     117      OSM      C10F     CEL1    -0.150000       12.0110           0
     13530 MEMB     117      OSM      H10F     HEL1     0.150000       1.00800           0
     13531 MEMB     117      OSM      C11F     CTL2    -0.180000       12.0110           0
     13532 MEMB     117      OSM      H11F     HAL2     0.900000E-01   1.00800           0
     13533 MEMB     117      OSM      H11G     HAL2     0.900000E-01   1.00800           0
     13534 MEMB     117      OSM      C12F     CTL2    -0.180000       12.0110           0
     13535 MEMB     117      OSM      H12F     HAL2     0.900000E-01   1.00800           0
     13536 MEMB     117      OSM      H12G     HAL2     0.900000E-01   1.00800           0
     13537 MEMB     117      OSM      C13F     CTL2    -0.180000       12.0110           0
     13538 MEMB     117      OSM      H13F     HAL2     0.900000E-01   1.00800           0
     13539 MEMB     117      OSM      H13G     HAL2     0.900000E-01   1.00800           0
     13540 MEMB     117      OSM      C14F     CTL2    -0.180000       12.0110           0
     13541 MEMB     117      OSM      H14F     HAL2     0.900000E-01   1.00800           0
     13542 MEMB     117      OSM      H14G     HAL2     0.900000E-01   1.00800           0
     13543 MEMB     117      OSM      C15F     CTL2    -0.180000       12.0110           0
     13544 MEMB     117      OSM      H15F     HAL2     0.900000E-01   1.00800           0
     13545 MEMB     117      OSM      H15G     HAL2     0.900000E-01   1.00800           0
     13546 MEMB     117      OSM      C16F     CTL2    -0.180000       12.0110           0
     13547 MEMB     117      OSM      H16F     HAL2     0.900000E-01   1.00800           0
     13548 MEMB     117      OSM      H16G     HAL2     0.900000E-01   1.00800           0
     13549 MEMB     117      OSM      C17F     CTL2    -0.180000       12.0110           0
     13550 MEMB     117      OSM      H17F     HAL2     0.900000E-01   1.00800           0
     13551 MEMB     117      OSM      H17G     HAL2     0.900000E-01   1.00800           0
     13552 MEMB     117      OSM      C18F     CTL3    -0.270000       12.0110           0
     13553 MEMB     117      OSM      H18F     HAL3     0.900000E-01   1.00800           0
     13554 MEMB     117      OSM      H18G     HAL3     0.900000E-01   1.00800           0
     13555 MEMB     117      OSM      H18H     HAL3     0.900000E-01   1.00800           0
     13556 MEMB     118      CHL1     C3       CRL1     0.140000       12.0110           0
     13557 MEMB     118      CHL1     H3       HGA1     0.900000E-01   1.00800           0
     13558 MEMB     118      CHL1     O3       OHL     -0.660000       15.9994           0
     13559 MEMB     118      CHL1     H3'      HOL      0.430000       1.00800           0
     13560 MEMB     118      CHL1     C4       CRL2    -0.180000       12.0110           0
     13561 MEMB     118      CHL1     H4A      HGA2     0.900000E-01   1.00800           0
     13562 MEMB     118      CHL1     H4B      HGA2     0.900000E-01   1.00800           0
     13563 MEMB     118      CHL1     C5       CEL1      0.00000       12.0110           0
     13564 MEMB     118      CHL1     C6       CEL1    -0.150000       12.0110           0
     13565 MEMB     118      CHL1     H6       HEL1     0.150000       1.00800           0
     13566 MEMB     118      CHL1     C7       CRL2    -0.180000       12.0110           0
     13567 MEMB     118      CHL1     H7A      HGA2     0.900000E-01   1.00800           0
     13568 MEMB     118      CHL1     H7B      HGA2     0.900000E-01   1.00800           0
     13569 MEMB     118      CHL1     C8       CRL1    -0.900000E-01   12.0110           0
     13570 MEMB     118      CHL1     H8       HGA1     0.900000E-01   1.00800           0
     13571 MEMB     118      CHL1     C14      CRL1    -0.900000E-01   12.0110           0
     13572 MEMB     118      CHL1     H14      HGA1     0.900000E-01   1.00800           0
     13573 MEMB     118      CHL1     C15      CRL2    -0.180000       12.0110           0
     13574 MEMB     118      CHL1     H15A     HGA2     0.900000E-01   1.00800           0
     13575 MEMB     118      CHL1     H15B     HGA2     0.900000E-01   1.00800           0
     13576 MEMB     118      CHL1     C16      CRL2    -0.180000       12.0110           0
     13577 MEMB     118      CHL1     H16A     HGA2     0.900000E-01   1.00800           0
     13578 MEMB     118      CHL1     H16B     HGA2     0.900000E-01   1.00800           0
     13579 MEMB     118      CHL1     C17      CRL1    -0.900000E-01   12.0110           0
     13580 MEMB     118      CHL1     H17      HGA1     0.900000E-01   1.00800           0
     13581 MEMB     118      CHL1     C13      CRL1      0.00000       12.0110           0
     13582 MEMB     118      CHL1     C18      CTL3    -0.270000       12.0110           0
     13583 MEMB     118      CHL1     H18A     HAL3     0.900000E-01   1.00800           0
     13584 MEMB     118      CHL1     H18B     HAL3     0.900000E-01   1.00800           0
     13585 MEMB     118      CHL1     H18C     HAL3     0.900000E-01   1.00800           0
     13586 MEMB     118      CHL1     C12      CRL2    -0.180000       12.0110           0
     13587 MEMB     118      CHL1     H12A     HGA2     0.900000E-01   1.00800           0
     13588 MEMB     118      CHL1     H12B     HGA2     0.900000E-01   1.00800           0
     13589 MEMB     118      CHL1     C11      CRL2    -0.180000       12.0110           0
     13590 MEMB     118      CHL1     H11A     HGA2     0.900000E-01   1.00800           0
     13591 MEMB     118      CHL1     H11B     HGA2     0.900000E-01   1.00800           0
     13592 MEMB     118      CHL1     C9       CRL1    -0.900000E-01   12.0110           0
     13593 MEMB     118      CHL1     H9       HGA1     0.900000E-01   1.00800           0
     13594 MEMB     118      CHL1     C10      CRL1      0.00000       12.0110           0
     13595 MEMB     118      CHL1     C19      CTL3    -0.270000       12.0110           0
     13596 MEMB     118      CHL1     H19A     HAL3     0.900000E-01   1.00800           0
     13597 MEMB     118      CHL1     H19B     HAL3     0.900000E-01   1.00800           0
     13598 MEMB     118      CHL1     H19C     HAL3     0.900000E-01   1.00800           0
     13599 MEMB     118      CHL1     C1       CRL2    -0.180000       12.0110           0
     13600 MEMB     118      CHL1     H1A      HGA2     0.900000E-01   1.00800           0
     13601 MEMB     118      CHL1     H1B      HGA2     0.900000E-01   1.00800           0
     13602 MEMB     118      CHL1     C2       CRL2    -0.180000       12.0110           0
     13603 MEMB     118      CHL1     H2A      HGA2     0.900000E-01   1.00800           0
     13604 MEMB     118      CHL1     H2B      HGA2     0.900000E-01   1.00800           0
     13605 MEMB     118      CHL1     C20      CTL1    -0.900000E-01   12.0110           0
     13606 MEMB     118      CHL1     H20      HAL1     0.900000E-01   1.00800           0
     13607 MEMB     118      CHL1     C21      CTL3    -0.270000       12.0110           0
     13608 MEMB     118      CHL1     H21A     HAL3     0.900000E-01   1.00800           0
     13609 MEMB     118      CHL1     H21B     HAL3     0.900000E-01   1.00800           0
     13610 MEMB     118      CHL1     H21C     HAL3     0.900000E-01   1.00800           0
     13611 MEMB     118      CHL1     C22      CTL2    -0.180000       12.0110           0
     13612 MEMB     118      CHL1     H22A     HAL2     0.900000E-01   1.00800           0
     13613 MEMB     118      CHL1     H22B     HAL2     0.900000E-01   1.00800           0
     13614 MEMB     118      CHL1     C23      CTL2    -0.180000       12.0110           0
     13615 MEMB     118      CHL1     H23A     HAL2     0.900000E-01   1.00800           0
     13616 MEMB     118      CHL1     H23B     HAL2     0.900000E-01   1.00800           0
     13617 MEMB     118      CHL1     C24      CTL2    -0.180000       12.0110           0
     13618 MEMB     118      CHL1     H24A     HAL2     0.900000E-01   1.00800           0
     13619 MEMB     118      CHL1     H24B     HAL2     0.900000E-01   1.00800           0
     13620 MEMB     118      CHL1     C25      CTL1    -0.900000E-01   12.0110           0
     13621 MEMB     118      CHL1     H25      HAL1     0.900000E-01   1.00800           0
     13622 MEMB     118      CHL1     C26      CTL3    -0.270000       12.0110           0
     13623 MEMB     118      CHL1     H26A     HAL3     0.900000E-01   1.00800           0
     13624 MEMB     118      CHL1     H26B     HAL3     0.900000E-01   1.00800           0
     13625 MEMB     118      CHL1     H26C     HAL3     0.900000E-01   1.00800           0
     13626 MEMB     118      CHL1     C27      CTL3    -0.270000       12.0110           0
     13627 MEMB     118      CHL1     H27A     HAL3     0.900000E-01   1.00800           0
     13628 MEMB     118      CHL1     H27B     HAL3     0.900000E-01   1.00800           0
     13629 MEMB     118      CHL1     H27C     HAL3     0.900000E-01   1.00800           0
     13630 MEMB     119      OSM      N        NTL     -0.600000       14.0070           0
     13631 MEMB     119      OSM      C15      CTL5    -0.350000       12.0110           0
     13632 MEMB     119      OSM      H15A     HL       0.250000       1.00800           0
     13633 MEMB     119      OSM      H15B     HL       0.250000       1.00800           0
     13634 MEMB     119      OSM      H15C     HL       0.250000       1.00800           0
     13635 MEMB     119      OSM      C14      CTL5    -0.350000       12.0110           0
     13636 MEMB     119      OSM      H14A     HL       0.250000       1.00800           0
     13637 MEMB     119      OSM      H14B     HL       0.250000       1.00800           0
     13638 MEMB     119      OSM      H14C     HL       0.250000       1.00800           0
     13639 MEMB     119      OSM      C13      CTL5    -0.350000       12.0110           0
     13640 MEMB     119      OSM      H13A     HL       0.250000       1.00800           0
     13641 MEMB     119      OSM      H13B     HL       0.250000       1.00800           0
     13642 MEMB     119      OSM      H13C     HL       0.250000       1.00800           0
     13643 MEMB     119      OSM      C12      CTL2    -0.100000       12.0110           0
     13644 MEMB     119      OSM      H12A     HL       0.250000       1.00800           0
     13645 MEMB     119      OSM      H12B     HL       0.250000       1.00800           0
     13646 MEMB     119      OSM      C11      CTL2    -0.800000E-01   12.0110           0
     13647 MEMB     119      OSM      H11A     HAL2     0.900000E-01   1.00800           0
     13648 MEMB     119      OSM      H11B     HAL2     0.900000E-01   1.00800           0
     13649 MEMB     119      OSM      P        PL        1.50000       30.9740           0
     13650 MEMB     119      OSM      O13      O2L     -0.780000       15.9994           0
     13651 MEMB     119      OSM      O14      O2L     -0.780000       15.9994           0
     13652 MEMB     119      OSM      O11      OSLP    -0.570000       15.9994           0
     13653 MEMB     119      OSM      O12      OSLP    -0.570000       15.9994           0
     13654 MEMB     119      OSM      C1S      CTL2    -0.800000E-01   12.0110           0
     13655 MEMB     119      OSM      H1S      HAL2     0.900000E-01   1.00800           0
     13656 MEMB     119      OSM      H1T      HAL2     0.900000E-01   1.00800           0
     13657 MEMB     119      OSM      NF       NHL     -0.700000       14.0070           0
     13658 MEMB     119      OSM      HNF      H        0.350000       1.00800           0
     13659 MEMB     119      OSM      C2S      CTL1     0.300000       12.0110           0
     13660 MEMB     119      OSM      H2S      HAL1     0.500000E-01   1.00800           0
     13661 MEMB     119      OSM      C3S      CTO1     0.500000       12.0110           0
     13662 MEMB     119      OSM      H3S      HAL1    -0.110000       1.00800           0
     13663 MEMB     119      OSM      O3       OHL     -0.690000       15.9994           0
     13664 MEMB     119      OSM      HO3      HOL      0.300000       1.00800           0
     13665 MEMB     119      OSM      C4S      CEL3    -0.150000       12.0110           0
     13666 MEMB     119      OSM      H4S      HEL1     0.150000       1.00800           0
     13667 MEMB     119      OSM      C5S      CEL3    -0.150000       12.0110           0
     13668 MEMB     119      OSM      H5S      HEL1     0.150000       1.00800           0
     13669 MEMB     119      OSM      C6S      CTL2    -0.180000       12.0110           0
     13670 MEMB     119      OSM      H6S      HAL2     0.900000E-01   1.00800           0
     13671 MEMB     119      OSM      H6T      HAL2     0.900000E-01   1.00800           0
     13672 MEMB     119      OSM      C7S      CTL2    -0.180000       12.0110           0
     13673 MEMB     119      OSM      H7S      HAL2     0.900000E-01   1.00800           0
     13674 MEMB     119      OSM      H7T      HAL2     0.900000E-01   1.00800           0
     13675 MEMB     119      OSM      C8S      CTL2    -0.180000       12.0110           0
     13676 MEMB     119      OSM      H8S      HAL2     0.900000E-01   1.00800           0
     13677 MEMB     119      OSM      H8T      HAL2     0.900000E-01   1.00800           0
     13678 MEMB     119      OSM      C9S      CTL2    -0.180000       12.0110           0
     13679 MEMB     119      OSM      H9S      HAL2     0.900000E-01   1.00800           0
     13680 MEMB     119      OSM      H9T      HAL2     0.900000E-01   1.00800           0
     13681 MEMB     119      OSM      C10S     CTL2    -0.180000       12.0110           0
     13682 MEMB     119      OSM      H10S     HAL2     0.900000E-01   1.00800           0
     13683 MEMB     119      OSM      H10T     HAL2     0.900000E-01   1.00800           0
     13684 MEMB     119      OSM      C11S     CTL2    -0.180000       12.0110           0
     13685 MEMB     119      OSM      H11S     HAL2     0.900000E-01   1.00800           0
     13686 MEMB     119      OSM      H11T     HAL2     0.900000E-01   1.00800           0
     13687 MEMB     119      OSM      C12S     CTL2    -0.180000       12.0110           0
     13688 MEMB     119      OSM      H12S     HAL2     0.900000E-01   1.00800           0
     13689 MEMB     119      OSM      H12T     HAL2     0.900000E-01   1.00800           0
     13690 MEMB     119      OSM      C13S     CTL2    -0.180000       12.0110           0
     13691 MEMB     119      OSM      H13S     HAL2     0.900000E-01   1.00800           0
     13692 MEMB     119      OSM      H13T     HAL2     0.900000E-01   1.00800           0
     13693 MEMB     119      OSM      C14S     CTL2    -0.180000       12.0110           0
     13694 MEMB     119      OSM      H14S     HAL2     0.900000E-01   1.00800           0
     13695 MEMB     119      OSM      H14T     HAL2     0.900000E-01   1.00800           0
     13696 MEMB     119      OSM      C15S     CTL2    -0.180000       12.0110           0
     13697 MEMB     119      OSM      H15S     HAL2     0.900000E-01   1.00800           0
     13698 MEMB     119      OSM      H15T     HAL2     0.900000E-01   1.00800           0
     13699 MEMB     119      OSM      C16S     CTL2    -0.180000       12.0110           0
     13700 MEMB     119      OSM      H16S     HAL2     0.900000E-01   1.00800           0
     13701 MEMB     119      OSM      H16T     HAL2     0.900000E-01   1.00800           0
     13702 MEMB     119      OSM      C17S     CTL2    -0.180000       12.0110           0
     13703 MEMB     119      OSM      H17S     HAL2     0.900000E-01   1.00800           0
     13704 MEMB     119      OSM      H17T     HAL2     0.900000E-01   1.00800           0
     13705 MEMB     119      OSM      C18S     CTL3    -0.270000       12.0110           0
     13706 MEMB     119      OSM      H18S     HAL3     0.900000E-01   1.00800           0
     13707 MEMB     119      OSM      H18T     HAL3     0.900000E-01   1.00800           0
     13708 MEMB     119      OSM      H18U     HAL3     0.900000E-01   1.00800           0
     13709 MEMB     119      OSM      C1F      C        0.550000       12.0110           0
     13710 MEMB     119      OSM      OF       O       -0.600000       15.9994           0
     13711 MEMB     119      OSM      C2F      CTL2    -0.700000E-01   12.0110           0
     13712 MEMB     119      OSM      H2F      HAL2     0.600000E-01   1.00800           0
     13713 MEMB     119      OSM      H2G      HAL2     0.600000E-01   1.00800           0
     13714 MEMB     119      OSM      C3F      CTL2    -0.180000       12.0110           0
     13715 MEMB     119      OSM      H3F      HAL2     0.900000E-01   1.00800           0
     13716 MEMB     119      OSM      H3G      HAL2     0.900000E-01   1.00800           0
     13717 MEMB     119      OSM      C4F      CTL2    -0.180000       12.0110           0
     13718 MEMB     119      OSM      H4F      HAL2     0.900000E-01   1.00800           0
     13719 MEMB     119      OSM      H4G      HAL2     0.900000E-01   1.00800           0
     13720 MEMB     119      OSM      C5F      CTL2    -0.180000       12.0110           0
     13721 MEMB     119      OSM      H5F      HAL2     0.900000E-01   1.00800           0
     13722 MEMB     119      OSM      H5G      HAL2     0.900000E-01   1.00800           0
     13723 MEMB     119      OSM      C6F      CTL2    -0.180000       12.0110           0
     13724 MEMB     119      OSM      H6F      HAL2     0.900000E-01   1.00800           0
     13725 MEMB     119      OSM      H6G      HAL2     0.900000E-01   1.00800           0
     13726 MEMB     119      OSM      C7F      CTL2    -0.180000       12.0110           0
     13727 MEMB     119      OSM      H7F      HAL2     0.900000E-01   1.00800           0
     13728 MEMB     119      OSM      H7G      HAL2     0.900000E-01   1.00800           0
     13729 MEMB     119      OSM      C8F      CTL2    -0.180000       12.0110           0
     13730 MEMB     119      OSM      H8F      HAL2     0.900000E-01   1.00800           0
     13731 MEMB     119      OSM      H8G      HAL2     0.900000E-01   1.00800           0
     13732 MEMB     119      OSM      C9F      CEL1    -0.150000       12.0110           0
     13733 MEMB     119      OSM      H9F      HEL1     0.150000       1.00800           0
     13734 MEMB     119      OSM      C10F     CEL1    -0.150000       12.0110           0
     13735 MEMB     119      OSM      H10F     HEL1     0.150000       1.00800           0
     13736 MEMB     119      OSM      C11F     CTL2    -0.180000       12.0110           0
     13737 MEMB     119      OSM      H11F     HAL2     0.900000E-01   1.00800           0
     13738 MEMB     119      OSM      H11G     HAL2     0.900000E-01   1.00800           0
     13739 MEMB     119      OSM      C12F     CTL2    -0.180000       12.0110           0
     13740 MEMB     119      OSM      H12F     HAL2     0.900000E-01   1.00800           0
     13741 MEMB     119      OSM      H12G     HAL2     0.900000E-01   1.00800           0
     13742 MEMB     119      OSM      C13F     CTL2    -0.180000       12.0110           0
     13743 MEMB     119      OSM      H13F     HAL2     0.900000E-01   1.00800           0
     13744 MEMB     119      OSM      H13G     HAL2     0.900000E-01   1.00800           0
     13745 MEMB     119      OSM      C14F     CTL2    -0.180000       12.0110           0
     13746 MEMB     119      OSM      H14F     HAL2     0.900000E-01   1.00800           0
     13747 MEMB     119      OSM      H14G     HAL2     0.900000E-01   1.00800           0
     13748 MEMB     119      OSM      C15F     CTL2    -0.180000       12.0110           0
     13749 MEMB     119      OSM      H15F     HAL2     0.900000E-01   1.00800           0
     13750 MEMB     119      OSM      H15G     HAL2     0.900000E-01   1.00800           0
     13751 MEMB     119      OSM      C16F     CTL2    -0.180000       12.0110           0
     13752 MEMB     119      OSM      H16F     HAL2     0.900000E-01   1.00800           0
     13753 MEMB     119      OSM      H16G     HAL2     0.900000E-01   1.00800           0
     13754 MEMB     119      OSM      C17F     CTL2    -0.180000       12.0110           0
     13755 MEMB     119      OSM      H17F     HAL2     0.900000E-01   1.00800           0
     13756 MEMB     119      OSM      H17G     HAL2     0.900000E-01   1.00800           0
     13757 MEMB     119      OSM      C18F     CTL3    -0.270000       12.0110           0
     13758 MEMB     119      OSM      H18F     HAL3     0.900000E-01   1.00800           0
     13759 MEMB     119      OSM      H18G     HAL3     0.900000E-01   1.00800           0
     13760 MEMB     119      OSM      H18H     HAL3     0.900000E-01   1.00800           0
     13761 MEMB     120      OSM      N        NTL     -0.600000       14.0070           0
     13762 MEMB     120      OSM      C15      CTL5    -0.350000       12.0110           0
     13763 MEMB     120      OSM      H15A     HL       0.250000       1.00800           0
     13764 MEMB     120      OSM      H15B     HL       0.250000       1.00800           0
     13765 MEMB     120      OSM      H15C     HL       0.250000       1.00800           0
     13766 MEMB     120      OSM      C14      CTL5    -0.350000       12.0110           0
     13767 MEMB     120      OSM      H14A     HL       0.250000       1.00800           0
     13768 MEMB     120      OSM      H14B     HL       0.250000       1.00800           0
     13769 MEMB     120      OSM      H14C     HL       0.250000       1.00800           0
     13770 MEMB     120      OSM      C13      CTL5    -0.350000       12.0110           0
     13771 MEMB     120      OSM      H13A     HL       0.250000       1.00800           0
     13772 MEMB     120      OSM      H13B     HL       0.250000       1.00800           0
     13773 MEMB     120      OSM      H13C     HL       0.250000       1.00800           0
     13774 MEMB     120      OSM      C12      CTL2    -0.100000       12.0110           0
     13775 MEMB     120      OSM      H12A     HL       0.250000       1.00800           0
     13776 MEMB     120      OSM      H12B     HL       0.250000       1.00800           0
     13777 MEMB     120      OSM      C11      CTL2    -0.800000E-01   12.0110           0
     13778 MEMB     120      OSM      H11A     HAL2     0.900000E-01   1.00800           0
     13779 MEMB     120      OSM      H11B     HAL2     0.900000E-01   1.00800           0
     13780 MEMB     120      OSM      P        PL        1.50000       30.9740           0
     13781 MEMB     120      OSM      O13      O2L     -0.780000       15.9994           0
     13782 MEMB     120      OSM      O14      O2L     -0.780000       15.9994           0
     13783 MEMB     120      OSM      O11      OSLP    -0.570000       15.9994           0
     13784 MEMB     120      OSM      O12      OSLP    -0.570000       15.9994           0
     13785 MEMB     120      OSM      C1S      CTL2    -0.800000E-01   12.0110           0
     13786 MEMB     120      OSM      H1S      HAL2     0.900000E-01   1.00800           0
     13787 MEMB     120      OSM      H1T      HAL2     0.900000E-01   1.00800           0
     13788 MEMB     120      OSM      NF       NHL     -0.700000       14.0070           0
     13789 MEMB     120      OSM      HNF      H        0.350000       1.00800           0
     13790 MEMB     120      OSM      C2S      CTL1     0.300000       12.0110           0
     13791 MEMB     120      OSM      H2S      HAL1     0.500000E-01   1.00800           0
     13792 MEMB     120      OSM      C3S      CTO1     0.500000       12.0110           0
     13793 MEMB     120      OSM      H3S      HAL1    -0.110000       1.00800           0
     13794 MEMB     120      OSM      O3       OHL     -0.690000       15.9994           0
     13795 MEMB     120      OSM      HO3      HOL      0.300000       1.00800           0
     13796 MEMB     120      OSM      C4S      CEL3    -0.150000       12.0110           0
     13797 MEMB     120      OSM      H4S      HEL1     0.150000       1.00800           0
     13798 MEMB     120      OSM      C5S      CEL3    -0.150000       12.0110           0
     13799 MEMB     120      OSM      H5S      HEL1     0.150000       1.00800           0
     13800 MEMB     120      OSM      C6S      CTL2    -0.180000       12.0110           0
     13801 MEMB     120      OSM      H6S      HAL2     0.900000E-01   1.00800           0
     13802 MEMB     120      OSM      H6T      HAL2     0.900000E-01   1.00800           0
     13803 MEMB     120      OSM      C7S      CTL2    -0.180000       12.0110           0
     13804 MEMB     120      OSM      H7S      HAL2     0.900000E-01   1.00800           0
     13805 MEMB     120      OSM      H7T      HAL2     0.900000E-01   1.00800           0
     13806 MEMB     120      OSM      C8S      CTL2    -0.180000       12.0110           0
     13807 MEMB     120      OSM      H8S      HAL2     0.900000E-01   1.00800           0
     13808 MEMB     120      OSM      H8T      HAL2     0.900000E-01   1.00800           0
     13809 MEMB     120      OSM      C9S      CTL2    -0.180000       12.0110           0
     13810 MEMB     120      OSM      H9S      HAL2     0.900000E-01   1.00800           0
     13811 MEMB     120      OSM      H9T      HAL2     0.900000E-01   1.00800           0
     13812 MEMB     120      OSM      C10S     CTL2    -0.180000       12.0110           0
     13813 MEMB     120      OSM      H10S     HAL2     0.900000E-01   1.00800           0
     13814 MEMB     120      OSM      H10T     HAL2     0.900000E-01   1.00800           0
     13815 MEMB     120      OSM      C11S     CTL2    -0.180000       12.0110           0
     13816 MEMB     120      OSM      H11S     HAL2     0.900000E-01   1.00800           0
     13817 MEMB     120      OSM      H11T     HAL2     0.900000E-01   1.00800           0
     13818 MEMB     120      OSM      C12S     CTL2    -0.180000       12.0110           0
     13819 MEMB     120      OSM      H12S     HAL2     0.900000E-01   1.00800           0
     13820 MEMB     120      OSM      H12T     HAL2     0.900000E-01   1.00800           0
     13821 MEMB     120      OSM      C13S     CTL2    -0.180000       12.0110           0
     13822 MEMB     120      OSM      H13S     HAL2     0.900000E-01   1.00800           0
     13823 MEMB     120      OSM      H13T     HAL2     0.900000E-01   1.00800           0
     13824 MEMB     120      OSM      C14S     CTL2    -0.180000       12.0110           0
     13825 MEMB     120      OSM      H14S     HAL2     0.900000E-01   1.00800           0
     13826 MEMB     120      OSM      H14T     HAL2     0.900000E-01   1.00800           0
     13827 MEMB     120      OSM      C15S     CTL2    -0.180000       12.0110           0
     13828 MEMB     120      OSM      H15S     HAL2     0.900000E-01   1.00800           0
     13829 MEMB     120      OSM      H15T     HAL2     0.900000E-01   1.00800           0
     13830 MEMB     120      OSM      C16S     CTL2    -0.180000       12.0110           0
     13831 MEMB     120      OSM      H16S     HAL2     0.900000E-01   1.00800           0
     13832 MEMB     120      OSM      H16T     HAL2     0.900000E-01   1.00800           0
     13833 MEMB     120      OSM      C17S     CTL2    -0.180000       12.0110           0
     13834 MEMB     120      OSM      H17S     HAL2     0.900000E-01   1.00800           0
     13835 MEMB     120      OSM      H17T     HAL2     0.900000E-01   1.00800           0
     13836 MEMB     120      OSM      C18S     CTL3    -0.270000       12.0110           0
     13837 MEMB     120      OSM      H18S     HAL3     0.900000E-01   1.00800           0
     13838 MEMB     120      OSM      H18T     HAL3     0.900000E-01   1.00800           0
     13839 MEMB     120      OSM      H18U     HAL3     0.900000E-01   1.00800           0
     13840 MEMB     120      OSM      C1F      C        0.550000       12.0110           0
     13841 MEMB     120      OSM      OF       O       -0.600000       15.9994           0
     13842 MEMB     120      OSM      C2F      CTL2    -0.700000E-01   12.0110           0
     13843 MEMB     120      OSM      H2F      HAL2     0.600000E-01   1.00800           0
     13844 MEMB     120      OSM      H2G      HAL2     0.600000E-01   1.00800           0
     13845 MEMB     120      OSM      C3F      CTL2    -0.180000       12.0110           0
     13846 MEMB     120      OSM      H3F      HAL2     0.900000E-01   1.00800           0
     13847 MEMB     120      OSM      H3G      HAL2     0.900000E-01   1.00800           0
     13848 MEMB     120      OSM      C4F      CTL2    -0.180000       12.0110           0
     13849 MEMB     120      OSM      H4F      HAL2     0.900000E-01   1.00800           0
     13850 MEMB     120      OSM      H4G      HAL2     0.900000E-01   1.00800           0
     13851 MEMB     120      OSM      C5F      CTL2    -0.180000       12.0110           0
     13852 MEMB     120      OSM      H5F      HAL2     0.900000E-01   1.00800           0
     13853 MEMB     120      OSM      H5G      HAL2     0.900000E-01   1.00800           0
     13854 MEMB     120      OSM      C6F      CTL2    -0.180000       12.0110           0
     13855 MEMB     120      OSM      H6F      HAL2     0.900000E-01   1.00800           0
     13856 MEMB     120      OSM      H6G      HAL2     0.900000E-01   1.00800           0
     13857 MEMB     120      OSM      C7F      CTL2    -0.180000       12.0110           0
     13858 MEMB     120      OSM      H7F      HAL2     0.900000E-01   1.00800           0
     13859 MEMB     120      OSM      H7G      HAL2     0.900000E-01   1.00800           0
     13860 MEMB     120      OSM      C8F      CTL2    -0.180000       12.0110           0
     13861 MEMB     120      OSM      H8F      HAL2     0.900000E-01   1.00800           0
     13862 MEMB     120      OSM      H8G      HAL2     0.900000E-01   1.00800           0
     13863 MEMB     120      OSM      C9F      CEL1    -0.150000       12.0110           0
     13864 MEMB     120      OSM      H9F      HEL1     0.150000       1.00800           0
     13865 MEMB     120      OSM      C10F     CEL1    -0.150000       12.0110           0
     13866 MEMB     120      OSM      H10F     HEL1     0.150000       1.00800           0
     13867 MEMB     120      OSM      C11F     CTL2    -0.180000       12.0110           0
     13868 MEMB     120      OSM      H11F     HAL2     0.900000E-01   1.00800           0
     13869 MEMB     120      OSM      H11G     HAL2     0.900000E-01   1.00800           0
     13870 MEMB     120      OSM      C12F     CTL2    -0.180000       12.0110           0
     13871 MEMB     120      OSM      H12F     HAL2     0.900000E-01   1.00800           0
     13872 MEMB     120      OSM      H12G     HAL2     0.900000E-01   1.00800           0
     13873 MEMB     120      OSM      C13F     CTL2    -0.180000       12.0110           0
     13874 MEMB     120      OSM      H13F     HAL2     0.900000E-01   1.00800           0
     13875 MEMB     120      OSM      H13G     HAL2     0.900000E-01   1.00800           0
     13876 MEMB     120      OSM      C14F     CTL2    -0.180000       12.0110           0
     13877 MEMB     120      OSM      H14F     HAL2     0.900000E-01   1.00800           0
     13878 MEMB     120      OSM      H14G     HAL2     0.900000E-01   1.00800           0
     13879 MEMB     120      OSM      C15F     CTL2    -0.180000       12.0110           0
     13880 MEMB     120      OSM      H15F     HAL2     0.900000E-01   1.00800           0
     13881 MEMB     120      OSM      H15G     HAL2     0.900000E-01   1.00800           0
     13882 MEMB     120      OSM      C16F     CTL2    -0.180000       12.0110           0
     13883 MEMB     120      OSM      H16F     HAL2     0.900000E-01   1.00800           0
     13884 MEMB     120      OSM      H16G     HAL2     0.900000E-01   1.00800           0
     13885 MEMB     120      OSM      C17F     CTL2    -0.180000       12.0110           0
     13886 MEMB     120      OSM      H17F     HAL2     0.900000E-01   1.00800           0
     13887 MEMB     120      OSM      H17G     HAL2     0.900000E-01   1.00800           0
     13888 MEMB     120      OSM      C18F     CTL3    -0.270000       12.0110           0
     13889 MEMB     120      OSM      H18F     HAL3     0.900000E-01   1.00800           0
     13890 MEMB     120      OSM      H18G     HAL3     0.900000E-01   1.00800           0
     13891 MEMB     120      OSM      H18H     HAL3     0.900000E-01   1.00800           0
     13892 MEMB     121      OSM      N        NTL     -0.600000       14.0070           0
     13893 MEMB     121      OSM      C15      CTL5    -0.350000       12.0110           0
     13894 MEMB     121      OSM      H15A     HL       0.250000       1.00800           0
     13895 MEMB     121      OSM      H15B     HL       0.250000       1.00800           0
     13896 MEMB     121      OSM      H15C     HL       0.250000       1.00800           0
     13897 MEMB     121      OSM      C14      CTL5    -0.350000       12.0110           0
     13898 MEMB     121      OSM      H14A     HL       0.250000       1.00800           0
     13899 MEMB     121      OSM      H14B     HL       0.250000       1.00800           0
     13900 MEMB     121      OSM      H14C     HL       0.250000       1.00800           0
     13901 MEMB     121      OSM      C13      CTL5    -0.350000       12.0110           0
     13902 MEMB     121      OSM      H13A     HL       0.250000       1.00800           0
     13903 MEMB     121      OSM      H13B     HL       0.250000       1.00800           0
     13904 MEMB     121      OSM      H13C     HL       0.250000       1.00800           0
     13905 MEMB     121      OSM      C12      CTL2    -0.100000       12.0110           0
     13906 MEMB     121      OSM      H12A     HL       0.250000       1.00800           0
     13907 MEMB     121      OSM      H12B     HL       0.250000       1.00800           0
     13908 MEMB     121      OSM      C11      CTL2    -0.800000E-01   12.0110           0
     13909 MEMB     121      OSM      H11A     HAL2     0.900000E-01   1.00800           0
     13910 MEMB     121      OSM      H11B     HAL2     0.900000E-01   1.00800           0
     13911 MEMB     121      OSM      P        PL        1.50000       30.9740           0
     13912 MEMB     121      OSM      O13      O2L     -0.780000       15.9994           0
     13913 MEMB     121      OSM      O14      O2L     -0.780000       15.9994           0
     13914 MEMB     121      OSM      O11      OSLP    -0.570000       15.9994           0
     13915 MEMB     121      OSM      O12      OSLP    -0.570000       15.9994           0
     13916 MEMB     121      OSM      C1S      CTL2    -0.800000E-01   12.0110           0
     13917 MEMB     121      OSM      H1S      HAL2     0.900000E-01   1.00800           0
     13918 MEMB     121      OSM      H1T      HAL2     0.900000E-01   1.00800           0
     13919 MEMB     121      OSM      NF       NHL     -0.700000       14.0070           0
     13920 MEMB     121      OSM      HNF      H        0.350000       1.00800           0
     13921 MEMB     121      OSM      C2S      CTL1     0.300000       12.0110           0
     13922 MEMB     121      OSM      H2S      HAL1     0.500000E-01   1.00800           0
     13923 MEMB     121      OSM      C3S      CTO1     0.500000       12.0110           0
     13924 MEMB     121      OSM      H3S      HAL1    -0.110000       1.00800           0
     13925 MEMB     121      OSM      O3       OHL     -0.690000       15.9994           0
     13926 MEMB     121      OSM      HO3      HOL      0.300000       1.00800           0
     13927 MEMB     121      OSM      C4S      CEL3    -0.150000       12.0110           0
     13928 MEMB     121      OSM      H4S      HEL1     0.150000       1.00800           0
     13929 MEMB     121      OSM      C5S      CEL3    -0.150000       12.0110           0
     13930 MEMB     121      OSM      H5S      HEL1     0.150000       1.00800           0
     13931 MEMB     121      OSM      C6S      CTL2    -0.180000       12.0110           0
     13932 MEMB     121      OSM      H6S      HAL2     0.900000E-01   1.00800           0
     13933 MEMB     121      OSM      H6T      HAL2     0.900000E-01   1.00800           0
     13934 MEMB     121      OSM      C7S      CTL2    -0.180000       12.0110           0
     13935 MEMB     121      OSM      H7S      HAL2     0.900000E-01   1.00800           0
     13936 MEMB     121      OSM      H7T      HAL2     0.900000E-01   1.00800           0
     13937 MEMB     121      OSM      C8S      CTL2    -0.180000       12.0110           0
     13938 MEMB     121      OSM      H8S      HAL2     0.900000E-01   1.00800           0
     13939 MEMB     121      OSM      H8T      HAL2     0.900000E-01   1.00800           0
     13940 MEMB     121      OSM      C9S      CTL2    -0.180000       12.0110           0
     13941 MEMB     121      OSM      H9S      HAL2     0.900000E-01   1.00800           0
     13942 MEMB     121      OSM      H9T      HAL2     0.900000E-01   1.00800           0
     13943 MEMB     121      OSM      C10S     CTL2    -0.180000       12.0110           0
     13944 MEMB     121      OSM      H10S     HAL2     0.900000E-01   1.00800           0
     13945 MEMB     121      OSM      H10T     HAL2     0.900000E-01   1.00800           0
     13946 MEMB     121      OSM      C11S     CTL2    -0.180000       12.0110           0
     13947 MEMB     121      OSM      H11S     HAL2     0.900000E-01   1.00800           0
     13948 MEMB     121      OSM      H11T     HAL2     0.900000E-01   1.00800           0
     13949 MEMB     121      OSM      C12S     CTL2    -0.180000       12.0110           0
     13950 MEMB     121      OSM      H12S     HAL2     0.900000E-01   1.00800           0
     13951 MEMB     121      OSM      H12T     HAL2     0.900000E-01   1.00800           0
     13952 MEMB     121      OSM      C13S     CTL2    -0.180000       12.0110           0
     13953 MEMB     121      OSM      H13S     HAL2     0.900000E-01   1.00800           0
     13954 MEMB     121      OSM      H13T     HAL2     0.900000E-01   1.00800           0
     13955 MEMB     121      OSM      C14S     CTL2    -0.180000       12.0110           0
     13956 MEMB     121      OSM      H14S     HAL2     0.900000E-01   1.00800           0
     13957 MEMB     121      OSM      H14T     HAL2     0.900000E-01   1.00800           0
     13958 MEMB     121      OSM      C15S     CTL2    -0.180000       12.0110           0
     13959 MEMB     121      OSM      H15S     HAL2     0.900000E-01   1.00800           0
     13960 MEMB     121      OSM      H15T     HAL2     0.900000E-01   1.00800           0
     13961 MEMB     121      OSM      C16S     CTL2    -0.180000       12.0110           0
     13962 MEMB     121      OSM      H16S     HAL2     0.900000E-01   1.00800           0
     13963 MEMB     121      OSM      H16T     HAL2     0.900000E-01   1.00800           0
     13964 MEMB     121      OSM      C17S     CTL2    -0.180000       12.0110           0
     13965 MEMB     121      OSM      H17S     HAL2     0.900000E-01   1.00800           0
     13966 MEMB     121      OSM      H17T     HAL2     0.900000E-01   1.00800           0
     13967 MEMB     121      OSM      C18S     CTL3    -0.270000       12.0110           0
     13968 MEMB     121      OSM      H18S     HAL3     0.900000E-01   1.00800           0
     13969 MEMB     121      OSM      H18T     HAL3     0.900000E-01   1.00800           0
     13970 MEMB     121      OSM      H18U     HAL3     0.900000E-01   1.00800           0
     13971 MEMB     121      OSM      C1F      C        0.550000       12.0110           0
     13972 MEMB     121      OSM      OF       O       -0.600000       15.9994           0
     13973 MEMB     121      OSM      C2F      CTL2    -0.700000E-01   12.0110           0
     13974 MEMB     121      OSM      H2F      HAL2     0.600000E-01   1.00800           0
     13975 MEMB     121      OSM      H2G      HAL2     0.600000E-01   1.00800           0
     13976 MEMB     121      OSM      C3F      CTL2    -0.180000       12.0110           0
     13977 MEMB     121      OSM      H3F      HAL2     0.900000E-01   1.00800           0
     13978 MEMB     121      OSM      H3G      HAL2     0.900000E-01   1.00800           0
     13979 MEMB     121      OSM      C4F      CTL2    -0.180000       12.0110           0
     13980 MEMB     121      OSM      H4F      HAL2     0.900000E-01   1.00800           0
     13981 MEMB     121      OSM      H4G      HAL2     0.900000E-01   1.00800           0
     13982 MEMB     121      OSM      C5F      CTL2    -0.180000       12.0110           0
     13983 MEMB     121      OSM      H5F      HAL2     0.900000E-01   1.00800           0
     13984 MEMB     121      OSM      H5G      HAL2     0.900000E-01   1.00800           0
     13985 MEMB     121      OSM      C6F      CTL2    -0.180000       12.0110           0
     13986 MEMB     121      OSM      H6F      HAL2     0.900000E-01   1.00800           0
     13987 MEMB     121      OSM      H6G      HAL2     0.900000E-01   1.00800           0
     13988 MEMB     121      OSM      C7F      CTL2    -0.180000       12.0110           0
     13989 MEMB     121      OSM      H7F      HAL2     0.900000E-01   1.00800           0
     13990 MEMB     121      OSM      H7G      HAL2     0.900000E-01   1.00800           0
     13991 MEMB     121      OSM      C8F      CTL2    -0.180000       12.0110           0
     13992 MEMB     121      OSM      H8F      HAL2     0.900000E-01   1.00800           0
     13993 MEMB     121      OSM      H8G      HAL2     0.900000E-01   1.00800           0
     13994 MEMB     121      OSM      C9F      CEL1    -0.150000       12.0110           0
     13995 MEMB     121      OSM      H9F      HEL1     0.150000       1.00800           0
     13996 MEMB     121      OSM      C10F     CEL1    -0.150000       12.0110           0
     13997 MEMB     121      OSM      H10F     HEL1     0.150000       1.00800           0
     13998 MEMB     121      OSM      C11F     CTL2    -0.180000       12.0110           0
     13999 MEMB     121      OSM      H11F     HAL2     0.900000E-01   1.00800           0
     14000 MEMB     121      OSM      H11G     HAL2     0.900000E-01   1.00800           0
     14001 MEMB     121      OSM      C12F     CTL2    -0.180000       12.0110           0
     14002 MEMB     121      OSM      H12F     HAL2     0.900000E-01   1.00800           0
     14003 MEMB     121      OSM      H12G     HAL2     0.900000E-01   1.00800           0
     14004 MEMB     121      OSM      C13F     CTL2    -0.180000       12.0110           0
     14005 MEMB     121      OSM      H13F     HAL2     0.900000E-01   1.00800           0
     14006 MEMB     121      OSM      H13G     HAL2     0.900000E-01   1.00800           0
     14007 MEMB     121      OSM      C14F     CTL2    -0.180000       12.0110           0
     14008 MEMB     121      OSM      H14F     HAL2     0.900000E-01   1.00800           0
     14009 MEMB     121      OSM      H14G     HAL2     0.900000E-01   1.00800           0
     14010 MEMB     121      OSM      C15F     CTL2    -0.180000       12.0110           0
     14011 MEMB     121      OSM      H15F     HAL2     0.900000E-01   1.00800           0
     14012 MEMB     121      OSM      H15G     HAL2     0.900000E-01   1.00800           0
     14013 MEMB     121      OSM      C16F     CTL2    -0.180000       12.0110           0
     14014 MEMB     121      OSM      H16F     HAL2     0.900000E-01   1.00800           0
     14015 MEMB     121      OSM      H16G     HAL2     0.900000E-01   1.00800           0
     14016 MEMB     121      OSM      C17F     CTL2    -0.180000       12.0110           0
     14017 MEMB     121      OSM      H17F     HAL2     0.900000E-01   1.00800           0
     14018 MEMB     121      OSM      H17G     HAL2     0.900000E-01   1.00800           0
     14019 MEMB     121      OSM      C18F     CTL3    -0.270000       12.0110           0
     14020 MEMB     121      OSM      H18F     HAL3     0.900000E-01   1.00800           0
     14021 MEMB     121      OSM      H18G     HAL3     0.900000E-01   1.00800           0
     14022 MEMB     121      OSM      H18H     HAL3     0.900000E-01   1.00800           0
     14023 MEMB     122      OSM      N        NTL     -0.600000       14.0070           0
     14024 MEMB     122      OSM      C15      CTL5    -0.350000       12.0110           0
     14025 MEMB     122      OSM      H15A     HL       0.250000       1.00800           0
     14026 MEMB     122      OSM      H15B     HL       0.250000       1.00800           0
     14027 MEMB     122      OSM      H15C     HL       0.250000       1.00800           0
     14028 MEMB     122      OSM      C14      CTL5    -0.350000       12.0110           0
     14029 MEMB     122      OSM      H14A     HL       0.250000       1.00800           0
     14030 MEMB     122      OSM      H14B     HL       0.250000       1.00800           0
     14031 MEMB     122      OSM      H14C     HL       0.250000       1.00800           0
     14032 MEMB     122      OSM      C13      CTL5    -0.350000       12.0110           0
     14033 MEMB     122      OSM      H13A     HL       0.250000       1.00800           0
     14034 MEMB     122      OSM      H13B     HL       0.250000       1.00800           0
     14035 MEMB     122      OSM      H13C     HL       0.250000       1.00800           0
     14036 MEMB     122      OSM      C12      CTL2    -0.100000       12.0110           0
     14037 MEMB     122      OSM      H12A     HL       0.250000       1.00800           0
     14038 MEMB     122      OSM      H12B     HL       0.250000       1.00800           0
     14039 MEMB     122      OSM      C11      CTL2    -0.800000E-01   12.0110           0
     14040 MEMB     122      OSM      H11A     HAL2     0.900000E-01   1.00800           0
     14041 MEMB     122      OSM      H11B     HAL2     0.900000E-01   1.00800           0
     14042 MEMB     122      OSM      P        PL        1.50000       30.9740           0
     14043 MEMB     122      OSM      O13      O2L     -0.780000       15.9994           0
     14044 MEMB     122      OSM      O14      O2L     -0.780000       15.9994           0
     14045 MEMB     122      OSM      O11      OSLP    -0.570000       15.9994           0
     14046 MEMB     122      OSM      O12      OSLP    -0.570000       15.9994           0
     14047 MEMB     122      OSM      C1S      CTL2    -0.800000E-01   12.0110           0
     14048 MEMB     122      OSM      H1S      HAL2     0.900000E-01   1.00800           0
     14049 MEMB     122      OSM      H1T      HAL2     0.900000E-01   1.00800           0
     14050 MEMB     122      OSM      NF       NHL     -0.700000       14.0070           0
     14051 MEMB     122      OSM      HNF      H        0.350000       1.00800           0
     14052 MEMB     122      OSM      C2S      CTL1     0.300000       12.0110           0
     14053 MEMB     122      OSM      H2S      HAL1     0.500000E-01   1.00800           0
     14054 MEMB     122      OSM      C3S      CTO1     0.500000       12.0110           0
     14055 MEMB     122      OSM      H3S      HAL1    -0.110000       1.00800           0
     14056 MEMB     122      OSM      O3       OHL     -0.690000       15.9994           0
     14057 MEMB     122      OSM      HO3      HOL      0.300000       1.00800           0
     14058 MEMB     122      OSM      C4S      CEL3    -0.150000       12.0110           0
     14059 MEMB     122      OSM      H4S      HEL1     0.150000       1.00800           0
     14060 MEMB     122      OSM      C5S      CEL3    -0.150000       12.0110           0
     14061 MEMB     122      OSM      H5S      HEL1     0.150000       1.00800           0
     14062 MEMB     122      OSM      C6S      CTL2    -0.180000       12.0110           0
     14063 MEMB     122      OSM      H6S      HAL2     0.900000E-01   1.00800           0
     14064 MEMB     122      OSM      H6T      HAL2     0.900000E-01   1.00800           0
     14065 MEMB     122      OSM      C7S      CTL2    -0.180000       12.0110           0
     14066 MEMB     122      OSM      H7S      HAL2     0.900000E-01   1.00800           0
     14067 MEMB     122      OSM      H7T      HAL2     0.900000E-01   1.00800           0
     14068 MEMB     122      OSM      C8S      CTL2    -0.180000       12.0110           0
     14069 MEMB     122      OSM      H8S      HAL2     0.900000E-01   1.00800           0
     14070 MEMB     122      OSM      H8T      HAL2     0.900000E-01   1.00800           0
     14071 MEMB     122      OSM      C9S      CTL2    -0.180000       12.0110           0
     14072 MEMB     122      OSM      H9S      HAL2     0.900000E-01   1.00800           0
     14073 MEMB     122      OSM      H9T      HAL2     0.900000E-01   1.00800           0
     14074 MEMB     122      OSM      C10S     CTL2    -0.180000       12.0110           0
     14075 MEMB     122      OSM      H10S     HAL2     0.900000E-01   1.00800           0
     14076 MEMB     122      OSM      H10T     HAL2     0.900000E-01   1.00800           0
     14077 MEMB     122      OSM      C11S     CTL2    -0.180000       12.0110           0
     14078 MEMB     122      OSM      H11S     HAL2     0.900000E-01   1.00800           0
     14079 MEMB     122      OSM      H11T     HAL2     0.900000E-01   1.00800           0
     14080 MEMB     122      OSM      C12S     CTL2    -0.180000       12.0110           0
     14081 MEMB     122      OSM      H12S     HAL2     0.900000E-01   1.00800           0
     14082 MEMB     122      OSM      H12T     HAL2     0.900000E-01   1.00800           0
     14083 MEMB     122      OSM      C13S     CTL2    -0.180000       12.0110           0
     14084 MEMB     122      OSM      H13S     HAL2     0.900000E-01   1.00800           0
     14085 MEMB     122      OSM      H13T     HAL2     0.900000E-01   1.00800           0
     14086 MEMB     122      OSM      C14S     CTL2    -0.180000       12.0110           0
     14087 MEMB     122      OSM      H14S     HAL2     0.900000E-01   1.00800           0
     14088 MEMB     122      OSM      H14T     HAL2     0.900000E-01   1.00800           0
     14089 MEMB     122      OSM      C15S     CTL2    -0.180000       12.0110           0
     14090 MEMB     122      OSM      H15S     HAL2     0.900000E-01   1.00800           0
     14091 MEMB     122      OSM      H15T     HAL2     0.900000E-01   1.00800           0
     14092 MEMB     122      OSM      C16S     CTL2    -0.180000       12.0110           0
     14093 MEMB     122      OSM      H16S     HAL2     0.900000E-01   1.00800           0
     14094 MEMB     122      OSM      H16T     HAL2     0.900000E-01   1.00800           0
     14095 MEMB     122      OSM      C17S     CTL2    -0.180000       12.0110           0
     14096 MEMB     122      OSM      H17S     HAL2     0.900000E-01   1.00800           0
     14097 MEMB     122      OSM      H17T     HAL2     0.900000E-01   1.00800           0
     14098 MEMB     122      OSM      C18S     CTL3    -0.270000       12.0110           0
     14099 MEMB     122      OSM      H18S     HAL3     0.900000E-01   1.00800           0
     14100 MEMB     122      OSM      H18T     HAL3     0.900000E-01   1.00800           0
     14101 MEMB     122      OSM      H18U     HAL3     0.900000E-01   1.00800           0
     14102 MEMB     122      OSM      C1F      C        0.550000       12.0110           0
     14103 MEMB     122      OSM      OF       O       -0.600000       15.9994           0
     14104 MEMB     122      OSM      C2F      CTL2    -0.700000E-01   12.0110           0
     14105 MEMB     122      OSM      H2F      HAL2     0.600000E-01   1.00800           0
     14106 MEMB     122      OSM      H2G      HAL2     0.600000E-01   1.00800           0
     14107 MEMB     122      OSM      C3F      CTL2    -0.180000       12.0110           0
     14108 MEMB     122      OSM      H3F      HAL2     0.900000E-01   1.00800           0
     14109 MEMB     122      OSM      H3G      HAL2     0.900000E-01   1.00800           0
     14110 MEMB     122      OSM      C4F      CTL2    -0.180000       12.0110           0
     14111 MEMB     122      OSM      H4F      HAL2     0.900000E-01   1.00800           0
     14112 MEMB     122      OSM      H4G      HAL2     0.900000E-01   1.00800           0
     14113 MEMB     122      OSM      C5F      CTL2    -0.180000       12.0110           0
     14114 MEMB     122      OSM      H5F      HAL2     0.900000E-01   1.00800           0
     14115 MEMB     122      OSM      H5G      HAL2     0.900000E-01   1.00800           0
     14116 MEMB     122      OSM      C6F      CTL2    -0.180000       12.0110           0
     14117 MEMB     122      OSM      H6F      HAL2     0.900000E-01   1.00800           0
     14118 MEMB     122      OSM      H6G      HAL2     0.900000E-01   1.00800           0
     14119 MEMB     122      OSM      C7F      CTL2    -0.180000       12.0110           0
     14120 MEMB     122      OSM      H7F      HAL2     0.900000E-01   1.00800           0
     14121 MEMB     122      OSM      H7G      HAL2     0.900000E-01   1.00800           0
     14122 MEMB     122      OSM      C8F      CTL2    -0.180000       12.0110           0
     14123 MEMB     122      OSM      H8F      HAL2     0.900000E-01   1.00800           0
     14124 MEMB     122      OSM      H8G      HAL2     0.900000E-01   1.00800           0
     14125 MEMB     122      OSM      C9F      CEL1    -0.150000       12.0110           0
     14126 MEMB     122      OSM      H9F      HEL1     0.150000       1.00800           0
     14127 MEMB     122      OSM      C10F     CEL1    -0.150000       12.0110           0
     14128 MEMB     122      OSM      H10F     HEL1     0.150000       1.00800           0
     14129 MEMB     122      OSM      C11F     CTL2    -0.180000       12.0110           0
     14130 MEMB     122      OSM      H11F     HAL2     0.900000E-01   1.00800           0
     14131 MEMB     122      OSM      H11G     HAL2     0.900000E-01   1.00800           0
     14132 MEMB     122      OSM      C12F     CTL2    -0.180000       12.0110           0
     14133 MEMB     122      OSM      H12F     HAL2     0.900000E-01   1.00800           0
     14134 MEMB     122      OSM      H12G     HAL2     0.900000E-01   1.00800           0
     14135 MEMB     122      OSM      C13F     CTL2    -0.180000       12.0110           0
     14136 MEMB     122      OSM      H13F     HAL2     0.900000E-01   1.00800           0
     14137 MEMB     122      OSM      H13G     HAL2     0.900000E-01   1.00800           0
     14138 MEMB     122      OSM      C14F     CTL2    -0.180000       12.0110           0
     14139 MEMB     122      OSM      H14F     HAL2     0.900000E-01   1.00800           0
     14140 MEMB     122      OSM      H14G     HAL2     0.900000E-01   1.00800           0
     14141 MEMB     122      OSM      C15F     CTL2    -0.180000       12.0110           0
     14142 MEMB     122      OSM      H15F     HAL2     0.900000E-01   1.00800           0
     14143 MEMB     122      OSM      H15G     HAL2     0.900000E-01   1.00800           0
     14144 MEMB     122      OSM      C16F     CTL2    -0.180000       12.0110           0
     14145 MEMB     122      OSM      H16F     HAL2     0.900000E-01   1.00800           0
     14146 MEMB     122      OSM      H16G     HAL2     0.900000E-01   1.00800           0
     14147 MEMB     122      OSM      C17F     CTL2    -0.180000       12.0110           0
     14148 MEMB     122      OSM      H17F     HAL2     0.900000E-01   1.00800           0
     14149 MEMB     122      OSM      H17G     HAL2     0.900000E-01   1.00800           0
     14150 MEMB     122      OSM      C18F     CTL3    -0.270000       12.0110           0
     14151 MEMB     122      OSM      H18F     HAL3     0.900000E-01   1.00800           0
     14152 MEMB     122      OSM      H18G     HAL3     0.900000E-01   1.00800           0
     14153 MEMB     122      OSM      H18H     HAL3     0.900000E-01   1.00800           0
     14154 MEMB     123      CHL1     C3       CRL1     0.140000       12.0110           0
     14155 MEMB     123      CHL1     H3       HGA1     0.900000E-01   1.00800           0
     14156 MEMB     123      CHL1     O3       OHL     -0.660000       15.9994           0
     14157 MEMB     123      CHL1     H3'      HOL      0.430000       1.00800           0
     14158 MEMB     123      CHL1     C4       CRL2    -0.180000       12.0110           0
     14159 MEMB     123      CHL1     H4A      HGA2     0.900000E-01   1.00800           0
     14160 MEMB     123      CHL1     H4B      HGA2     0.900000E-01   1.00800           0
     14161 MEMB     123      CHL1     C5       CEL1      0.00000       12.0110           0
     14162 MEMB     123      CHL1     C6       CEL1    -0.150000       12.0110           0
     14163 MEMB     123      CHL1     H6       HEL1     0.150000       1.00800           0
     14164 MEMB     123      CHL1     C7       CRL2    -0.180000       12.0110           0
     14165 MEMB     123      CHL1     H7A      HGA2     0.900000E-01   1.00800           0
     14166 MEMB     123      CHL1     H7B      HGA2     0.900000E-01   1.00800           0
     14167 MEMB     123      CHL1     C8       CRL1    -0.900000E-01   12.0110           0
     14168 MEMB     123      CHL1     H8       HGA1     0.900000E-01   1.00800           0
     14169 MEMB     123      CHL1     C14      CRL1    -0.900000E-01   12.0110           0
     14170 MEMB     123      CHL1     H14      HGA1     0.900000E-01   1.00800           0
     14171 MEMB     123      CHL1     C15      CRL2    -0.180000       12.0110           0
     14172 MEMB     123      CHL1     H15A     HGA2     0.900000E-01   1.00800           0
     14173 MEMB     123      CHL1     H15B     HGA2     0.900000E-01   1.00800           0
     14174 MEMB     123      CHL1     C16      CRL2    -0.180000       12.0110           0
     14175 MEMB     123      CHL1     H16A     HGA2     0.900000E-01   1.00800           0
     14176 MEMB     123      CHL1     H16B     HGA2     0.900000E-01   1.00800           0
     14177 MEMB     123      CHL1     C17      CRL1    -0.900000E-01   12.0110           0
     14178 MEMB     123      CHL1     H17      HGA1     0.900000E-01   1.00800           0
     14179 MEMB     123      CHL1     C13      CRL1      0.00000       12.0110           0
     14180 MEMB     123      CHL1     C18      CTL3    -0.270000       12.0110           0
     14181 MEMB     123      CHL1     H18A     HAL3     0.900000E-01   1.00800           0
     14182 MEMB     123      CHL1     H18B     HAL3     0.900000E-01   1.00800           0
     14183 MEMB     123      CHL1     H18C     HAL3     0.900000E-01   1.00800           0
     14184 MEMB     123      CHL1     C12      CRL2    -0.180000       12.0110           0
     14185 MEMB     123      CHL1     H12A     HGA2     0.900000E-01   1.00800           0
     14186 MEMB     123      CHL1     H12B     HGA2     0.900000E-01   1.00800           0
     14187 MEMB     123      CHL1     C11      CRL2    -0.180000       12.0110           0
     14188 MEMB     123      CHL1     H11A     HGA2     0.900000E-01   1.00800           0
     14189 MEMB     123      CHL1     H11B     HGA2     0.900000E-01   1.00800           0
     14190 MEMB     123      CHL1     C9       CRL1    -0.900000E-01   12.0110           0
     14191 MEMB     123      CHL1     H9       HGA1     0.900000E-01   1.00800           0
     14192 MEMB     123      CHL1     C10      CRL1      0.00000       12.0110           0
     14193 MEMB     123      CHL1     C19      CTL3    -0.270000       12.0110           0
     14194 MEMB     123      CHL1     H19A     HAL3     0.900000E-01   1.00800           0
     14195 MEMB     123      CHL1     H19B     HAL3     0.900000E-01   1.00800           0
     14196 MEMB     123      CHL1     H19C     HAL3     0.900000E-01   1.00800           0
     14197 MEMB     123      CHL1     C1       CRL2    -0.180000       12.0110           0
     14198 MEMB     123      CHL1     H1A      HGA2     0.900000E-01   1.00800           0
     14199 MEMB     123      CHL1     H1B      HGA2     0.900000E-01   1.00800           0
     14200 MEMB     123      CHL1     C2       CRL2    -0.180000       12.0110           0
     14201 MEMB     123      CHL1     H2A      HGA2     0.900000E-01   1.00800           0
     14202 MEMB     123      CHL1     H2B      HGA2     0.900000E-01   1.00800           0
     14203 MEMB     123      CHL1     C20      CTL1    -0.900000E-01   12.0110           0
     14204 MEMB     123      CHL1     H20      HAL1     0.900000E-01   1.00800           0
     14205 MEMB     123      CHL1     C21      CTL3    -0.270000       12.0110           0
     14206 MEMB     123      CHL1     H21A     HAL3     0.900000E-01   1.00800           0
     14207 MEMB     123      CHL1     H21B     HAL3     0.900000E-01   1.00800           0
     14208 MEMB     123      CHL1     H21C     HAL3     0.900000E-01   1.00800           0
     14209 MEMB     123      CHL1     C22      CTL2    -0.180000       12.0110           0
     14210 MEMB     123      CHL1     H22A     HAL2     0.900000E-01   1.00800           0
     14211 MEMB     123      CHL1     H22B     HAL2     0.900000E-01   1.00800           0
     14212 MEMB     123      CHL1     C23      CTL2    -0.180000       12.0110           0
     14213 MEMB     123      CHL1     H23A     HAL2     0.900000E-01   1.00800           0
     14214 MEMB     123      CHL1     H23B     HAL2     0.900000E-01   1.00800           0
     14215 MEMB     123      CHL1     C24      CTL2    -0.180000       12.0110           0
     14216 MEMB     123      CHL1     H24A     HAL2     0.900000E-01   1.00800           0
     14217 MEMB     123      CHL1     H24B     HAL2     0.900000E-01   1.00800           0
     14218 MEMB     123      CHL1     C25      CTL1    -0.900000E-01   12.0110           0
     14219 MEMB     123      CHL1     H25      HAL1     0.900000E-01   1.00800           0
     14220 MEMB     123      CHL1     C26      CTL3    -0.270000       12.0110           0
     14221 MEMB     123      CHL1     H26A     HAL3     0.900000E-01   1.00800           0
     14222 MEMB     123      CHL1     H26B     HAL3     0.900000E-01   1.00800           0
     14223 MEMB     123      CHL1     H26C     HAL3     0.900000E-01   1.00800           0
     14224 MEMB     123      CHL1     C27      CTL3    -0.270000       12.0110           0
     14225 MEMB     123      CHL1     H27A     HAL3     0.900000E-01   1.00800           0
     14226 MEMB     123      CHL1     H27B     HAL3     0.900000E-01   1.00800           0
     14227 MEMB     123      CHL1     H27C     HAL3     0.900000E-01   1.00800           0
     14228 MEMB     124      CHL1     C3       CRL1     0.140000       12.0110           0
     14229 MEMB     124      CHL1     H3       HGA1     0.900000E-01   1.00800           0
     14230 MEMB     124      CHL1     O3       OHL     -0.660000       15.9994           0
     14231 MEMB     124      CHL1     H3'      HOL      0.430000       1.00800           0
     14232 MEMB     124      CHL1     C4       CRL2    -0.180000       12.0110           0
     14233 MEMB     124      CHL1     H4A      HGA2     0.900000E-01   1.00800           0
     14234 MEMB     124      CHL1     H4B      HGA2     0.900000E-01   1.00800           0
     14235 MEMB     124      CHL1     C5       CEL1      0.00000       12.0110           0
     14236 MEMB     124      CHL1     C6       CEL1    -0.150000       12.0110           0
     14237 MEMB     124      CHL1     H6       HEL1     0.150000       1.00800           0
     14238 MEMB     124      CHL1     C7       CRL2    -0.180000       12.0110           0
     14239 MEMB     124      CHL1     H7A      HGA2     0.900000E-01   1.00800           0
     14240 MEMB     124      CHL1     H7B      HGA2     0.900000E-01   1.00800           0
     14241 MEMB     124      CHL1     C8       CRL1    -0.900000E-01   12.0110           0
     14242 MEMB     124      CHL1     H8       HGA1     0.900000E-01   1.00800           0
     14243 MEMB     124      CHL1     C14      CRL1    -0.900000E-01   12.0110           0
     14244 MEMB     124      CHL1     H14      HGA1     0.900000E-01   1.00800           0
     14245 MEMB     124      CHL1     C15      CRL2    -0.180000       12.0110           0
     14246 MEMB     124      CHL1     H15A     HGA2     0.900000E-01   1.00800           0
     14247 MEMB     124      CHL1     H15B     HGA2     0.900000E-01   1.00800           0
     14248 MEMB     124      CHL1     C16      CRL2    -0.180000       12.0110           0
     14249 MEMB     124      CHL1     H16A     HGA2     0.900000E-01   1.00800           0
     14250 MEMB     124      CHL1     H16B     HGA2     0.900000E-01   1.00800           0
     14251 MEMB     124      CHL1     C17      CRL1    -0.900000E-01   12.0110           0
     14252 MEMB     124      CHL1     H17      HGA1     0.900000E-01   1.00800           0
     14253 MEMB     124      CHL1     C13      CRL1      0.00000       12.0110           0
     14254 MEMB     124      CHL1     C18      CTL3    -0.270000       12.0110           0
     14255 MEMB     124      CHL1     H18A     HAL3     0.900000E-01   1.00800           0
     14256 MEMB     124      CHL1     H18B     HAL3     0.900000E-01   1.00800           0
     14257 MEMB     124      CHL1     H18C     HAL3     0.900000E-01   1.00800           0
     14258 MEMB     124      CHL1     C12      CRL2    -0.180000       12.0110           0
     14259 MEMB     124      CHL1     H12A     HGA2     0.900000E-01   1.00800           0
     14260 MEMB     124      CHL1     H12B     HGA2     0.900000E-01   1.00800           0
     14261 MEMB     124      CHL1     C11      CRL2    -0.180000       12.0110           0
     14262 MEMB     124      CHL1     H11A     HGA2     0.900000E-01   1.00800           0
     14263 MEMB     124      CHL1     H11B     HGA2     0.900000E-01   1.00800           0
     14264 MEMB     124      CHL1     C9       CRL1    -0.900000E-01   12.0110           0
     14265 MEMB     124      CHL1     H9       HGA1     0.900000E-01   1.00800           0
     14266 MEMB     124      CHL1     C10      CRL1      0.00000       12.0110           0
     14267 MEMB     124      CHL1     C19      CTL3    -0.270000       12.0110           0
     14268 MEMB     124      CHL1     H19A     HAL3     0.900000E-01   1.00800           0
     14269 MEMB     124      CHL1     H19B     HAL3     0.900000E-01   1.00800           0
     14270 MEMB     124      CHL1     H19C     HAL3     0.900000E-01   1.00800           0
     14271 MEMB     124      CHL1     C1       CRL2    -0.180000       12.0110           0
     14272 MEMB     124      CHL1     H1A      HGA2     0.900000E-01   1.00800           0
     14273 MEMB     124      CHL1     H1B      HGA2     0.900000E-01   1.00800           0
     14274 MEMB     124      CHL1     C2       CRL2    -0.180000       12.0110           0
     14275 MEMB     124      CHL1     H2A      HGA2     0.900000E-01   1.00800           0
     14276 MEMB     124      CHL1     H2B      HGA2     0.900000E-01   1.00800           0
     14277 MEMB     124      CHL1     C20      CTL1    -0.900000E-01   12.0110           0
     14278 MEMB     124      CHL1     H20      HAL1     0.900000E-01   1.00800           0
     14279 MEMB     124      CHL1     C21      CTL3    -0.270000       12.0110           0
     14280 MEMB     124      CHL1     H21A     HAL3     0.900000E-01   1.00800           0
     14281 MEMB     124      CHL1     H21B     HAL3     0.900000E-01   1.00800           0
     14282 MEMB     124      CHL1     H21C     HAL3     0.900000E-01   1.00800           0
     14283 MEMB     124      CHL1     C22      CTL2    -0.180000       12.0110           0
     14284 MEMB     124      CHL1     H22A     HAL2     0.900000E-01   1.00800           0
     14285 MEMB     124      CHL1     H22B     HAL2     0.900000E-01   1.00800           0
     14286 MEMB     124      CHL1     C23      CTL2    -0.180000       12.0110           0
     14287 MEMB     124      CHL1     H23A     HAL2     0.900000E-01   1.00800           0
     14288 MEMB     124      CHL1     H23B     HAL2     0.900000E-01   1.00800           0
     14289 MEMB     124      CHL1     C24      CTL2    -0.180000       12.0110           0
     14290 MEMB     124      CHL1     H24A     HAL2     0.900000E-01   1.00800           0
     14291 MEMB     124      CHL1     H24B     HAL2     0.900000E-01   1.00800           0
     14292 MEMB     124      CHL1     C25      CTL1    -0.900000E-01   12.0110           0
     14293 MEMB     124      CHL1     H25      HAL1     0.900000E-01   1.00800           0
     14294 MEMB     124      CHL1     C26      CTL3    -0.270000       12.0110           0
     14295 MEMB     124      CHL1     H26A     HAL3     0.900000E-01   1.00800           0
     14296 MEMB     124      CHL1     H26B     HAL3     0.900000E-01   1.00800           0
     14297 MEMB     124      CHL1     H26C     HAL3     0.900000E-01   1.00800           0
     14298 MEMB     124      CHL1     C27      CTL3    -0.270000       12.0110           0
     14299 MEMB     124      CHL1     H27A     HAL3     0.900000E-01   1.00800           0
     14300 MEMB     124      CHL1     H27B     HAL3     0.900000E-01   1.00800           0
     14301 MEMB     124      CHL1     H27C     HAL3     0.900000E-01   1.00800           0
     14302 MEMB     125      OSM      N        NTL     -0.600000       14.0070           0
     14303 MEMB     125      OSM      C15      CTL5    -0.350000       12.0110           0
     14304 MEMB     125      OSM      H15A     HL       0.250000       1.00800           0
     14305 MEMB     125      OSM      H15B     HL       0.250000       1.00800           0
     14306 MEMB     125      OSM      H15C     HL       0.250000       1.00800           0
     14307 MEMB     125      OSM      C14      CTL5    -0.350000       12.0110           0
     14308 MEMB     125      OSM      H14A     HL       0.250000       1.00800           0
     14309 MEMB     125      OSM      H14B     HL       0.250000       1.00800           0
     14310 MEMB     125      OSM      H14C     HL       0.250000       1.00800           0
     14311 MEMB     125      OSM      C13      CTL5    -0.350000       12.0110           0
     14312 MEMB     125      OSM      H13A     HL       0.250000       1.00800           0
     14313 MEMB     125      OSM      H13B     HL       0.250000       1.00800           0
     14314 MEMB     125      OSM      H13C     HL       0.250000       1.00800           0
     14315 MEMB     125      OSM      C12      CTL2    -0.100000       12.0110           0
     14316 MEMB     125      OSM      H12A     HL       0.250000       1.00800           0
     14317 MEMB     125      OSM      H12B     HL       0.250000       1.00800           0
     14318 MEMB     125      OSM      C11      CTL2    -0.800000E-01   12.0110           0
     14319 MEMB     125      OSM      H11A     HAL2     0.900000E-01   1.00800           0
     14320 MEMB     125      OSM      H11B     HAL2     0.900000E-01   1.00800           0
     14321 MEMB     125      OSM      P        PL        1.50000       30.9740           0
     14322 MEMB     125      OSM      O13      O2L     -0.780000       15.9994           0
     14323 MEMB     125      OSM      O14      O2L     -0.780000       15.9994           0
     14324 MEMB     125      OSM      O11      OSLP    -0.570000       15.9994           0
     14325 MEMB     125      OSM      O12      OSLP    -0.570000       15.9994           0
     14326 MEMB     125      OSM      C1S      CTL2    -0.800000E-01   12.0110           0
     14327 MEMB     125      OSM      H1S      HAL2     0.900000E-01   1.00800           0
     14328 MEMB     125      OSM      H1T      HAL2     0.900000E-01   1.00800           0
     14329 MEMB     125      OSM      NF       NHL     -0.700000       14.0070           0
     14330 MEMB     125      OSM      HNF      H        0.350000       1.00800           0
     14331 MEMB     125      OSM      C2S      CTL1     0.300000       12.0110           0
     14332 MEMB     125      OSM      H2S      HAL1     0.500000E-01   1.00800           0
     14333 MEMB     125      OSM      C3S      CTO1     0.500000       12.0110           0
     14334 MEMB     125      OSM      H3S      HAL1    -0.110000       1.00800           0
     14335 MEMB     125      OSM      O3       OHL     -0.690000       15.9994           0
     14336 MEMB     125      OSM      HO3      HOL      0.300000       1.00800           0
     14337 MEMB     125      OSM      C4S      CEL3    -0.150000       12.0110           0
     14338 MEMB     125      OSM      H4S      HEL1     0.150000       1.00800           0
     14339 MEMB     125      OSM      C5S      CEL3    -0.150000       12.0110           0
     14340 MEMB     125      OSM      H5S      HEL1     0.150000       1.00800           0
     14341 MEMB     125      OSM      C6S      CTL2    -0.180000       12.0110           0
     14342 MEMB     125      OSM      H6S      HAL2     0.900000E-01   1.00800           0
     14343 MEMB     125      OSM      H6T      HAL2     0.900000E-01   1.00800           0
     14344 MEMB     125      OSM      C7S      CTL2    -0.180000       12.0110           0
     14345 MEMB     125      OSM      H7S      HAL2     0.900000E-01   1.00800           0
     14346 MEMB     125      OSM      H7T      HAL2     0.900000E-01   1.00800           0
     14347 MEMB     125      OSM      C8S      CTL2    -0.180000       12.0110           0
     14348 MEMB     125      OSM      H8S      HAL2     0.900000E-01   1.00800           0
     14349 MEMB     125      OSM      H8T      HAL2     0.900000E-01   1.00800           0
     14350 MEMB     125      OSM      C9S      CTL2    -0.180000       12.0110           0
     14351 MEMB     125      OSM      H9S      HAL2     0.900000E-01   1.00800           0
     14352 MEMB     125      OSM      H9T      HAL2     0.900000E-01   1.00800           0
     14353 MEMB     125      OSM      C10S     CTL2    -0.180000       12.0110           0
     14354 MEMB     125      OSM      H10S     HAL2     0.900000E-01   1.00800           0
     14355 MEMB     125      OSM      H10T     HAL2     0.900000E-01   1.00800           0
     14356 MEMB     125      OSM      C11S     CTL2    -0.180000       12.0110           0
     14357 MEMB     125      OSM      H11S     HAL2     0.900000E-01   1.00800           0
     14358 MEMB     125      OSM      H11T     HAL2     0.900000E-01   1.00800           0
     14359 MEMB     125      OSM      C12S     CTL2    -0.180000       12.0110           0
     14360 MEMB     125      OSM      H12S     HAL2     0.900000E-01   1.00800           0
     14361 MEMB     125      OSM      H12T     HAL2     0.900000E-01   1.00800           0
     14362 MEMB     125      OSM      C13S     CTL2    -0.180000       12.0110           0
     14363 MEMB     125      OSM      H13S     HAL2     0.900000E-01   1.00800           0
     14364 MEMB     125      OSM      H13T     HAL2     0.900000E-01   1.00800           0
     14365 MEMB     125      OSM      C14S     CTL2    -0.180000       12.0110           0
     14366 MEMB     125      OSM      H14S     HAL2     0.900000E-01   1.00800           0
     14367 MEMB     125      OSM      H14T     HAL2     0.900000E-01   1.00800           0
     14368 MEMB     125      OSM      C15S     CTL2    -0.180000       12.0110           0
     14369 MEMB     125      OSM      H15S     HAL2     0.900000E-01   1.00800           0
     14370 MEMB     125      OSM      H15T     HAL2     0.900000E-01   1.00800           0
     14371 MEMB     125      OSM      C16S     CTL2    -0.180000       12.0110           0
     14372 MEMB     125      OSM      H16S     HAL2     0.900000E-01   1.00800           0
     14373 MEMB     125      OSM      H16T     HAL2     0.900000E-01   1.00800           0
     14374 MEMB     125      OSM      C17S     CTL2    -0.180000       12.0110           0
     14375 MEMB     125      OSM      H17S     HAL2     0.900000E-01   1.00800           0
     14376 MEMB     125      OSM      H17T     HAL2     0.900000E-01   1.00800           0
     14377 MEMB     125      OSM      C18S     CTL3    -0.270000       12.0110           0
     14378 MEMB     125      OSM      H18S     HAL3     0.900000E-01   1.00800           0
     14379 MEMB     125      OSM      H18T     HAL3     0.900000E-01   1.00800           0
     14380 MEMB     125      OSM      H18U     HAL3     0.900000E-01   1.00800           0
     14381 MEMB     125      OSM      C1F      C        0.550000       12.0110           0
     14382 MEMB     125      OSM      OF       O       -0.600000       15.9994           0
     14383 MEMB     125      OSM      C2F      CTL2    -0.700000E-01   12.0110           0
     14384 MEMB     125      OSM      H2F      HAL2     0.600000E-01   1.00800           0
     14385 MEMB     125      OSM      H2G      HAL2     0.600000E-01   1.00800           0
     14386 MEMB     125      OSM      C3F      CTL2    -0.180000       12.0110           0
     14387 MEMB     125      OSM      H3F      HAL2     0.900000E-01   1.00800           0
     14388 MEMB     125      OSM      H3G      HAL2     0.900000E-01   1.00800           0
     14389 MEMB     125      OSM      C4F      CTL2    -0.180000       12.0110           0
     14390 MEMB     125      OSM      H4F      HAL2     0.900000E-01   1.00800           0
     14391 MEMB     125      OSM      H4G      HAL2     0.900000E-01   1.00800           0
     14392 MEMB     125      OSM      C5F      CTL2    -0.180000       12.0110           0
     14393 MEMB     125      OSM      H5F      HAL2     0.900000E-01   1.00800           0
     14394 MEMB     125      OSM      H5G      HAL2     0.900000E-01   1.00800           0
     14395 MEMB     125      OSM      C6F      CTL2    -0.180000       12.0110           0
     14396 MEMB     125      OSM      H6F      HAL2     0.900000E-01   1.00800           0
     14397 MEMB     125      OSM      H6G      HAL2     0.900000E-01   1.00800           0
     14398 MEMB     125      OSM      C7F      CTL2    -0.180000       12.0110           0
     14399 MEMB     125      OSM      H7F      HAL2     0.900000E-01   1.00800           0
     14400 MEMB     125      OSM      H7G      HAL2     0.900000E-01   1.00800           0
     14401 MEMB     125      OSM      C8F      CTL2    -0.180000       12.0110           0
     14402 MEMB     125      OSM      H8F      HAL2     0.900000E-01   1.00800           0
     14403 MEMB     125      OSM      H8G      HAL2     0.900000E-01   1.00800           0
     14404 MEMB     125      OSM      C9F      CEL1    -0.150000       12.0110           0
     14405 MEMB     125      OSM      H9F      HEL1     0.150000       1.00800           0
     14406 MEMB     125      OSM      C10F     CEL1    -0.150000       12.0110           0
     14407 MEMB     125      OSM      H10F     HEL1     0.150000       1.00800           0
     14408 MEMB     125      OSM      C11F     CTL2    -0.180000       12.0110           0
     14409 MEMB     125      OSM      H11F     HAL2     0.900000E-01   1.00800           0
     14410 MEMB     125      OSM      H11G     HAL2     0.900000E-01   1.00800           0
     14411 MEMB     125      OSM      C12F     CTL2    -0.180000       12.0110           0
     14412 MEMB     125      OSM      H12F     HAL2     0.900000E-01   1.00800           0
     14413 MEMB     125      OSM      H12G     HAL2     0.900000E-01   1.00800           0
     14414 MEMB     125      OSM      C13F     CTL2    -0.180000       12.0110           0
     14415 MEMB     125      OSM      H13F     HAL2     0.900000E-01   1.00800           0
     14416 MEMB     125      OSM      H13G     HAL2     0.900000E-01   1.00800           0
     14417 MEMB     125      OSM      C14F     CTL2    -0.180000       12.0110           0
     14418 MEMB     125      OSM      H14F     HAL2     0.900000E-01   1.00800           0
     14419 MEMB     125      OSM      H14G     HAL2     0.900000E-01   1.00800           0
     14420 MEMB     125      OSM      C15F     CTL2    -0.180000       12.0110           0
     14421 MEMB     125      OSM      H15F     HAL2     0.900000E-01   1.00800           0
     14422 MEMB     125      OSM      H15G     HAL2     0.900000E-01   1.00800           0
     14423 MEMB     125      OSM      C16F     CTL2    -0.180000       12.0110           0
     14424 MEMB     125      OSM      H16F     HAL2     0.900000E-01   1.00800           0
     14425 MEMB     125      OSM      H16G     HAL2     0.900000E-01   1.00800           0
     14426 MEMB     125      OSM      C17F     CTL2    -0.180000       12.0110           0
     14427 MEMB     125      OSM      H17F     HAL2     0.900000E-01   1.00800           0
     14428 MEMB     125      OSM      H17G     HAL2     0.900000E-01   1.00800           0
     14429 MEMB     125      OSM      C18F     CTL3    -0.270000       12.0110           0
     14430 MEMB     125      OSM      H18F     HAL3     0.900000E-01   1.00800           0
     14431 MEMB     125      OSM      H18G     HAL3     0.900000E-01   1.00800           0
     14432 MEMB     125      OSM      H18H     HAL3     0.900000E-01   1.00800           0
     14433 MEMB     126      CHL1     C3       CRL1     0.140000       12.0110           0
     14434 MEMB     126      CHL1     H3       HGA1     0.900000E-01   1.00800           0
     14435 MEMB     126      CHL1     O3       OHL     -0.660000       15.9994           0
     14436 MEMB     126      CHL1     H3'      HOL      0.430000       1.00800           0
     14437 MEMB     126      CHL1     C4       CRL2    -0.180000       12.0110           0
     14438 MEMB     126      CHL1     H4A      HGA2     0.900000E-01   1.00800           0
     14439 MEMB     126      CHL1     H4B      HGA2     0.900000E-01   1.00800           0
     14440 MEMB     126      CHL1     C5       CEL1      0.00000       12.0110           0
     14441 MEMB     126      CHL1     C6       CEL1    -0.150000       12.0110           0
     14442 MEMB     126      CHL1     H6       HEL1     0.150000       1.00800           0
     14443 MEMB     126      CHL1     C7       CRL2    -0.180000       12.0110           0
     14444 MEMB     126      CHL1     H7A      HGA2     0.900000E-01   1.00800           0
     14445 MEMB     126      CHL1     H7B      HGA2     0.900000E-01   1.00800           0
     14446 MEMB     126      CHL1     C8       CRL1    -0.900000E-01   12.0110           0
     14447 MEMB     126      CHL1     H8       HGA1     0.900000E-01   1.00800           0
     14448 MEMB     126      CHL1     C14      CRL1    -0.900000E-01   12.0110           0
     14449 MEMB     126      CHL1     H14      HGA1     0.900000E-01   1.00800           0
     14450 MEMB     126      CHL1     C15      CRL2    -0.180000       12.0110           0
     14451 MEMB     126      CHL1     H15A     HGA2     0.900000E-01   1.00800           0
     14452 MEMB     126      CHL1     H15B     HGA2     0.900000E-01   1.00800           0
     14453 MEMB     126      CHL1     C16      CRL2    -0.180000       12.0110           0
     14454 MEMB     126      CHL1     H16A     HGA2     0.900000E-01   1.00800           0
     14455 MEMB     126      CHL1     H16B     HGA2     0.900000E-01   1.00800           0
     14456 MEMB     126      CHL1     C17      CRL1    -0.900000E-01   12.0110           0
     14457 MEMB     126      CHL1     H17      HGA1     0.900000E-01   1.00800           0
     14458 MEMB     126      CHL1     C13      CRL1      0.00000       12.0110           0
     14459 MEMB     126      CHL1     C18      CTL3    -0.270000       12.0110           0
     14460 MEMB     126      CHL1     H18A     HAL3     0.900000E-01   1.00800           0
     14461 MEMB     126      CHL1     H18B     HAL3     0.900000E-01   1.00800           0
     14462 MEMB     126      CHL1     H18C     HAL3     0.900000E-01   1.00800           0
     14463 MEMB     126      CHL1     C12      CRL2    -0.180000       12.0110           0
     14464 MEMB     126      CHL1     H12A     HGA2     0.900000E-01   1.00800           0
     14465 MEMB     126      CHL1     H12B     HGA2     0.900000E-01   1.00800           0
     14466 MEMB     126      CHL1     C11      CRL2    -0.180000       12.0110           0
     14467 MEMB     126      CHL1     H11A     HGA2     0.900000E-01   1.00800           0
     14468 MEMB     126      CHL1     H11B     HGA2     0.900000E-01   1.00800           0
     14469 MEMB     126      CHL1     C9       CRL1    -0.900000E-01   12.0110           0
     14470 MEMB     126      CHL1     H9       HGA1     0.900000E-01   1.00800           0
     14471 MEMB     126      CHL1     C10      CRL1      0.00000       12.0110           0
     14472 MEMB     126      CHL1     C19      CTL3    -0.270000       12.0110           0
     14473 MEMB     126      CHL1     H19A     HAL3     0.900000E-01   1.00800           0
     14474 MEMB     126      CHL1     H19B     HAL3     0.900000E-01   1.00800           0
     14475 MEMB     126      CHL1     H19C     HAL3     0.900000E-01   1.00800           0
     14476 MEMB     126      CHL1     C1       CRL2    -0.180000       12.0110           0
     14477 MEMB     126      CHL1     H1A      HGA2     0.900000E-01   1.00800           0
     14478 MEMB     126      CHL1     H1B      HGA2     0.900000E-01   1.00800           0
     14479 MEMB     126      CHL1     C2       CRL2    -0.180000       12.0110           0
     14480 MEMB     126      CHL1     H2A      HGA2     0.900000E-01   1.00800           0
     14481 MEMB     126      CHL1     H2B      HGA2     0.900000E-01   1.00800           0
     14482 MEMB     126      CHL1     C20      CTL1    -0.900000E-01   12.0110           0
     14483 MEMB     126      CHL1     H20      HAL1     0.900000E-01   1.00800           0
     14484 MEMB     126      CHL1     C21      CTL3    -0.270000       12.0110           0
     14485 MEMB     126      CHL1     H21A     HAL3     0.900000E-01   1.00800           0
     14486 MEMB     126      CHL1     H21B     HAL3     0.900000E-01   1.00800           0
     14487 MEMB     126      CHL1     H21C     HAL3     0.900000E-01   1.00800           0
     14488 MEMB     126      CHL1     C22      CTL2    -0.180000       12.0110           0
     14489 MEMB     126      CHL1     H22A     HAL2     0.900000E-01   1.00800           0
     14490 MEMB     126      CHL1     H22B     HAL2     0.900000E-01   1.00800           0
     14491 MEMB     126      CHL1     C23      CTL2    -0.180000       12.0110           0
     14492 MEMB     126      CHL1     H23A     HAL2     0.900000E-01   1.00800           0
     14493 MEMB     126      CHL1     H23B     HAL2     0.900000E-01   1.00800           0
     14494 MEMB     126      CHL1     C24      CTL2    -0.180000       12.0110           0
     14495 MEMB     126      CHL1     H24A     HAL2     0.900000E-01   1.00800           0
     14496 MEMB     126      CHL1     H24B     HAL2     0.900000E-01   1.00800           0
     14497 MEMB     126      CHL1     C25      CTL1    -0.900000E-01   12.0110           0
     14498 MEMB     126      CHL1     H25      HAL1     0.900000E-01   1.00800           0
     14499 MEMB     126      CHL1     C26      CTL3    -0.270000       12.0110           0
     14500 MEMB     126      CHL1     H26A     HAL3     0.900000E-01   1.00800           0
     14501 MEMB     126      CHL1     H26B     HAL3     0.900000E-01   1.00800           0
     14502 MEMB     126      CHL1     H26C     HAL3     0.900000E-01   1.00800           0
     14503 MEMB     126      CHL1     C27      CTL3    -0.270000       12.0110           0
     14504 MEMB     126      CHL1     H27A     HAL3     0.900000E-01   1.00800           0
     14505 MEMB     126      CHL1     H27B     HAL3     0.900000E-01   1.00800           0
     14506 MEMB     126      CHL1     H27C     HAL3     0.900000E-01   1.00800           0
     14507 MEMB     127      CHL1     C3       CRL1     0.140000       12.0110           0
     14508 MEMB     127      CHL1     H3       HGA1     0.900000E-01   1.00800           0
     14509 MEMB     127      CHL1     O3       OHL     -0.660000       15.9994           0
     14510 MEMB     127      CHL1     H3'      HOL      0.430000       1.00800           0
     14511 MEMB     127      CHL1     C4       CRL2    -0.180000       12.0110           0
     14512 MEMB     127      CHL1     H4A      HGA2     0.900000E-01   1.00800           0
     14513 MEMB     127      CHL1     H4B      HGA2     0.900000E-01   1.00800           0
     14514 MEMB     127      CHL1     C5       CEL1      0.00000       12.0110           0
     14515 MEMB     127      CHL1     C6       CEL1    -0.150000       12.0110           0
     14516 MEMB     127      CHL1     H6       HEL1     0.150000       1.00800           0
     14517 MEMB     127      CHL1     C7       CRL2    -0.180000       12.0110           0
     14518 MEMB     127      CHL1     H7A      HGA2     0.900000E-01   1.00800           0
     14519 MEMB     127      CHL1     H7B      HGA2     0.900000E-01   1.00800           0
     14520 MEMB     127      CHL1     C8       CRL1    -0.900000E-01   12.0110           0
     14521 MEMB     127      CHL1     H8       HGA1     0.900000E-01   1.00800           0
     14522 MEMB     127      CHL1     C14      CRL1    -0.900000E-01   12.0110           0
     14523 MEMB     127      CHL1     H14      HGA1     0.900000E-01   1.00800           0
     14524 MEMB     127      CHL1     C15      CRL2    -0.180000       12.0110           0
     14525 MEMB     127      CHL1     H15A     HGA2     0.900000E-01   1.00800           0
     14526 MEMB     127      CHL1     H15B     HGA2     0.900000E-01   1.00800           0
     14527 MEMB     127      CHL1     C16      CRL2    -0.180000       12.0110           0
     14528 MEMB     127      CHL1     H16A     HGA2     0.900000E-01   1.00800           0
     14529 MEMB     127      CHL1     H16B     HGA2     0.900000E-01   1.00800           0
     14530 MEMB     127      CHL1     C17      CRL1    -0.900000E-01   12.0110           0
     14531 MEMB     127      CHL1     H17      HGA1     0.900000E-01   1.00800           0
     14532 MEMB     127      CHL1     C13      CRL1      0.00000       12.0110           0
     14533 MEMB     127      CHL1     C18      CTL3    -0.270000       12.0110           0
     14534 MEMB     127      CHL1     H18A     HAL3     0.900000E-01   1.00800           0
     14535 MEMB     127      CHL1     H18B     HAL3     0.900000E-01   1.00800           0
     14536 MEMB     127      CHL1     H18C     HAL3     0.900000E-01   1.00800           0
     14537 MEMB     127      CHL1     C12      CRL2    -0.180000       12.0110           0
     14538 MEMB     127      CHL1     H12A     HGA2     0.900000E-01   1.00800           0
     14539 MEMB     127      CHL1     H12B     HGA2     0.900000E-01   1.00800           0
     14540 MEMB     127      CHL1     C11      CRL2    -0.180000       12.0110           0
     14541 MEMB     127      CHL1     H11A     HGA2     0.900000E-01   1.00800           0
     14542 MEMB     127      CHL1     H11B     HGA2     0.900000E-01   1.00800           0
     14543 MEMB     127      CHL1     C9       CRL1    -0.900000E-01   12.0110           0
     14544 MEMB     127      CHL1     H9       HGA1     0.900000E-01   1.00800           0
     14545 MEMB     127      CHL1     C10      CRL1      0.00000       12.0110           0
     14546 MEMB     127      CHL1     C19      CTL3    -0.270000       12.0110           0
     14547 MEMB     127      CHL1     H19A     HAL3     0.900000E-01   1.00800           0
     14548 MEMB     127      CHL1     H19B     HAL3     0.900000E-01   1.00800           0
     14549 MEMB     127      CHL1     H19C     HAL3     0.900000E-01   1.00800           0
     14550 MEMB     127      CHL1     C1       CRL2    -0.180000       12.0110           0
     14551 MEMB     127      CHL1     H1A      HGA2     0.900000E-01   1.00800           0
     14552 MEMB     127      CHL1     H1B      HGA2     0.900000E-01   1.00800           0
     14553 MEMB     127      CHL1     C2       CRL2    -0.180000       12.0110           0
     14554 MEMB     127      CHL1     H2A      HGA2     0.900000E-01   1.00800           0
     14555 MEMB     127      CHL1     H2B      HGA2     0.900000E-01   1.00800           0
     14556 MEMB     127      CHL1     C20      CTL1    -0.900000E-01   12.0110           0
     14557 MEMB     127      CHL1     H20      HAL1     0.900000E-01   1.00800           0
     14558 MEMB     127      CHL1     C21      CTL3    -0.270000       12.0110           0
     14559 MEMB     127      CHL1     H21A     HAL3     0.900000E-01   1.00800           0
     14560 MEMB     127      CHL1     H21B     HAL3     0.900000E-01   1.00800           0
     14561 MEMB     127      CHL1     H21C     HAL3     0.900000E-01   1.00800           0
     14562 MEMB     127      CHL1     C22      CTL2    -0.180000       12.0110           0
     14563 MEMB     127      CHL1     H22A     HAL2     0.900000E-01   1.00800           0
     14564 MEMB     127      CHL1     H22B     HAL2     0.900000E-01   1.00800           0
     14565 MEMB     127      CHL1     C23      CTL2    -0.180000       12.0110           0
     14566 MEMB     127      CHL1     H23A     HAL2     0.900000E-01   1.00800           0
     14567 MEMB     127      CHL1     H23B     HAL2     0.900000E-01   1.00800           0
     14568 MEMB     127      CHL1     C24      CTL2    -0.180000       12.0110           0
     14569 MEMB     127      CHL1     H24A     HAL2     0.900000E-01   1.00800           0
     14570 MEMB     127      CHL1     H24B     HAL2     0.900000E-01   1.00800           0
     14571 MEMB     127      CHL1     C25      CTL1    -0.900000E-01   12.0110           0
     14572 MEMB     127      CHL1     H25      HAL1     0.900000E-01   1.00800           0
     14573 MEMB     127      CHL1     C26      CTL3    -0.270000       12.0110           0
     14574 MEMB     127      CHL1     H26A     HAL3     0.900000E-01   1.00800           0
     14575 MEMB     127      CHL1     H26B     HAL3     0.900000E-01   1.00800           0
     14576 MEMB     127      CHL1     H26C     HAL3     0.900000E-01   1.00800           0
     14577 MEMB     127      CHL1     C27      CTL3    -0.270000       12.0110           0
     14578 MEMB     127      CHL1     H27A     HAL3     0.900000E-01   1.00800           0
     14579 MEMB     127      CHL1     H27B     HAL3     0.900000E-01   1.00800           0
     14580 MEMB     127      CHL1     H27C     HAL3     0.900000E-01   1.00800           0
     14581 MEMB     128      CHL1     C3       CRL1     0.140000       12.0110           0
     14582 MEMB     128      CHL1     H3       HGA1     0.900000E-01   1.00800           0
     14583 MEMB     128      CHL1     O3       OHL     -0.660000       15.9994           0
     14584 MEMB     128      CHL1     H3'      HOL      0.430000       1.00800           0
     14585 MEMB     128      CHL1     C4       CRL2    -0.180000       12.0110           0
     14586 MEMB     128      CHL1     H4A      HGA2     0.900000E-01   1.00800           0
     14587 MEMB     128      CHL1     H4B      HGA2     0.900000E-01   1.00800           0
     14588 MEMB     128      CHL1     C5       CEL1      0.00000       12.0110           0
     14589 MEMB     128      CHL1     C6       CEL1    -0.150000       12.0110           0
     14590 MEMB     128      CHL1     H6       HEL1     0.150000       1.00800           0
     14591 MEMB     128      CHL1     C7       CRL2    -0.180000       12.0110           0
     14592 MEMB     128      CHL1     H7A      HGA2     0.900000E-01   1.00800           0
     14593 MEMB     128      CHL1     H7B      HGA2     0.900000E-01   1.00800           0
     14594 MEMB     128      CHL1     C8       CRL1    -0.900000E-01   12.0110           0
     14595 MEMB     128      CHL1     H8       HGA1     0.900000E-01   1.00800           0
     14596 MEMB     128      CHL1     C14      CRL1    -0.900000E-01   12.0110           0
     14597 MEMB     128      CHL1     H14      HGA1     0.900000E-01   1.00800           0
     14598 MEMB     128      CHL1     C15      CRL2    -0.180000       12.0110           0
     14599 MEMB     128      CHL1     H15A     HGA2     0.900000E-01   1.00800           0
     14600 MEMB     128      CHL1     H15B     HGA2     0.900000E-01   1.00800           0
     14601 MEMB     128      CHL1     C16      CRL2    -0.180000       12.0110           0
     14602 MEMB     128      CHL1     H16A     HGA2     0.900000E-01   1.00800           0
     14603 MEMB     128      CHL1     H16B     HGA2     0.900000E-01   1.00800           0
     14604 MEMB     128      CHL1     C17      CRL1    -0.900000E-01   12.0110           0
     14605 MEMB     128      CHL1     H17      HGA1     0.900000E-01   1.00800           0
     14606 MEMB     128      CHL1     C13      CRL1      0.00000       12.0110           0
     14607 MEMB     128      CHL1     C18      CTL3    -0.270000       12.0110           0
     14608 MEMB     128      CHL1     H18A     HAL3     0.900000E-01   1.00800           0
     14609 MEMB     128      CHL1     H18B     HAL3     0.900000E-01   1.00800           0
     14610 MEMB     128      CHL1     H18C     HAL3     0.900000E-01   1.00800           0
     14611 MEMB     128      CHL1     C12      CRL2    -0.180000       12.0110           0
     14612 MEMB     128      CHL1     H12A     HGA2     0.900000E-01   1.00800           0
     14613 MEMB     128      CHL1     H12B     HGA2     0.900000E-01   1.00800           0
     14614 MEMB     128      CHL1     C11      CRL2    -0.180000       12.0110           0
     14615 MEMB     128      CHL1     H11A     HGA2     0.900000E-01   1.00800           0
     14616 MEMB     128      CHL1     H11B     HGA2     0.900000E-01   1.00800           0
     14617 MEMB     128      CHL1     C9       CRL1    -0.900000E-01   12.0110           0
     14618 MEMB     128      CHL1     H9       HGA1     0.900000E-01   1.00800           0
     14619 MEMB     128      CHL1     C10      CRL1      0.00000       12.0110           0
     14620 MEMB     128      CHL1     C19      CTL3    -0.270000       12.0110           0
     14621 MEMB     128      CHL1     H19A     HAL3     0.900000E-01   1.00800           0
     14622 MEMB     128      CHL1     H19B     HAL3     0.900000E-01   1.00800           0
     14623 MEMB     128      CHL1     H19C     HAL3     0.900000E-01   1.00800           0
     14624 MEMB     128      CHL1     C1       CRL2    -0.180000       12.0110           0
     14625 MEMB     128      CHL1     H1A      HGA2     0.900000E-01   1.00800           0
     14626 MEMB     128      CHL1     H1B      HGA2     0.900000E-01   1.00800           0
     14627 MEMB     128      CHL1     C2       CRL2    -0.180000       12.0110           0
     14628 MEMB     128      CHL1     H2A      HGA2     0.900000E-01   1.00800           0
     14629 MEMB     128      CHL1     H2B      HGA2     0.900000E-01   1.00800           0
     14630 MEMB     128      CHL1     C20      CTL1    -0.900000E-01   12.0110           0
     14631 MEMB     128      CHL1     H20      HAL1     0.900000E-01   1.00800           0
     14632 MEMB     128      CHL1     C21      CTL3    -0.270000       12.0110           0
     14633 MEMB     128      CHL1     H21A     HAL3     0.900000E-01   1.00800           0
     14634 MEMB     128      CHL1     H21B     HAL3     0.900000E-01   1.00800           0
     14635 MEMB     128      CHL1     H21C     HAL3     0.900000E-01   1.00800           0
     14636 MEMB     128      CHL1     C22      CTL2    -0.180000       12.0110           0
     14637 MEMB     128      CHL1     H22A     HAL2     0.900000E-01   1.00800           0
     14638 MEMB     128      CHL1     H22B     HAL2     0.900000E-01   1.00800           0
     14639 MEMB     128      CHL1     C23      CTL2    -0.180000       12.0110           0
     14640 MEMB     128      CHL1     H23A     HAL2     0.900000E-01   1.00800           0
     14641 MEMB     128      CHL1     H23B     HAL2     0.900000E-01   1.00800           0
     14642 MEMB     128      CHL1     C24      CTL2    -0.180000       12.0110           0
     14643 MEMB     128      CHL1     H24A     HAL2     0.900000E-01   1.00800           0
     14644 MEMB     128      CHL1     H24B     HAL2     0.900000E-01   1.00800           0
     14645 MEMB     128      CHL1     C25      CTL1    -0.900000E-01   12.0110           0
     14646 MEMB     128      CHL1     H25      HAL1     0.900000E-01   1.00800           0
     14647 MEMB     128      CHL1     C26      CTL3    -0.270000       12.0110           0
     14648 MEMB     128      CHL1     H26A     HAL3     0.900000E-01   1.00800           0
     14649 MEMB     128      CHL1     H26B     HAL3     0.900000E-01   1.00800           0
     14650 MEMB     128      CHL1     H26C     HAL3     0.900000E-01   1.00800           0
     14651 MEMB     128      CHL1     C27      CTL3    -0.270000       12.0110           0
     14652 MEMB     128      CHL1     H27A     HAL3     0.900000E-01   1.00800           0
     14653 MEMB     128      CHL1     H27B     HAL3     0.900000E-01   1.00800           0
     14654 MEMB     128      CHL1     H27C     HAL3     0.900000E-01   1.00800           0
     14655 MEMB     129      SAPE     N        NH3L    -0.300000       14.0070           0
     14656 MEMB     129      SAPE     HN1      HCL      0.330000       1.00800           0
     14657 MEMB     129      SAPE     HN2      HCL      0.330000       1.00800           0
     14658 MEMB     129      SAPE     HN3      HCL      0.330000       1.00800           0
     14659 MEMB     129      SAPE     C12      CTL2     0.130000       12.0110           0
     14660 MEMB     129      SAPE     H12A     HAL2     0.900000E-01   1.00800           0
     14661 MEMB     129      SAPE     H12B     HAL2     0.900000E-01   1.00800           0
     14662 MEMB     129      SAPE     C11      CTL2    -0.800000E-01   12.0110           0
     14663 MEMB     129      SAPE     H11A     HAL2     0.900000E-01   1.00800           0
     14664 MEMB     129      SAPE     H11B     HAL2     0.900000E-01   1.00800           0
     14665 MEMB     129      SAPE     P        PL        1.50000       30.9740           0
     14666 MEMB     129      SAPE     O13      O2L     -0.780000       15.9994           0
     14667 MEMB     129      SAPE     O14      O2L     -0.780000       15.9994           0
     14668 MEMB     129      SAPE     O12      OSLP    -0.570000       15.9994           0
     14669 MEMB     129      SAPE     O11      OSLP    -0.570000       15.9994           0
     14670 MEMB     129      SAPE     C1       CTL2    -0.800000E-01   12.0110           0
     14671 MEMB     129      SAPE     HA       HAL2     0.900000E-01   1.00800           0
     14672 MEMB     129      SAPE     HB       HAL2     0.900000E-01   1.00800           0
     14673 MEMB     129      SAPE     C2       CTL1     0.170000       12.0110           0
     14674 MEMB     129      SAPE     HS       HAL1     0.900000E-01   1.00800           0
     14675 MEMB     129      SAPE     O21      OSL     -0.490000       15.9994           0
     14676 MEMB     129      SAPE     C21      CL       0.900000       12.0110           0
     14677 MEMB     129      SAPE     O22      OBL     -0.630000       15.9994           0
     14678 MEMB     129      SAPE     C22      CTL2    -0.220000       12.0110           0
     14679 MEMB     129      SAPE     H2R      HAL2     0.900000E-01   1.00800           0
     14680 MEMB     129      SAPE     H2S      HAL2     0.900000E-01   1.00800           0
     14681 MEMB     129      SAPE     C3       CTL2     0.800000E-01   12.0110           0
     14682 MEMB     129      SAPE     HX       HAL2     0.900000E-01   1.00800           0
     14683 MEMB     129      SAPE     HY       HAL2     0.900000E-01   1.00800           0
     14684 MEMB     129      SAPE     O31      OSL     -0.490000       15.9994           0
     14685 MEMB     129      SAPE     C31      CL       0.900000       12.0110           0
     14686 MEMB     129      SAPE     O32      OBL     -0.630000       15.9994           0
     14687 MEMB     129      SAPE     C32      CTL2    -0.220000       12.0110           0
     14688 MEMB     129      SAPE     H2X      HAL2     0.900000E-01   1.00800           0
     14689 MEMB     129      SAPE     H2Y      HAL2     0.900000E-01   1.00800           0
     14690 MEMB     129      SAPE     C23      CTL2    -0.180000       12.0110           0
     14691 MEMB     129      SAPE     H3R      HAL2     0.900000E-01   1.00800           0
     14692 MEMB     129      SAPE     H3S      HAL2     0.900000E-01   1.00800           0
     14693 MEMB     129      SAPE     C24      CTL2    -0.180000       12.0110           0
     14694 MEMB     129      SAPE     H4R      HAL2     0.900000E-01   1.00800           0
     14695 MEMB     129      SAPE     H4S      HAL2     0.900000E-01   1.00800           0
     14696 MEMB     129      SAPE     C25      CEL1    -0.150000       12.0110           0
     14697 MEMB     129      SAPE     H5R      HEL1     0.150000       1.00800           0
     14698 MEMB     129      SAPE     C26      CEL1    -0.150000       12.0110           0
     14699 MEMB     129      SAPE     H6R      HEL1     0.150000       1.00800           0
     14700 MEMB     129      SAPE     C27      CTL2    -0.180000       12.0110           0
     14701 MEMB     129      SAPE     H7R      HAL2     0.900000E-01   1.00800           0
     14702 MEMB     129      SAPE     H7S      HAL2     0.900000E-01   1.00800           0
     14703 MEMB     129      SAPE     C28      CEL1    -0.150000       12.0110           0
     14704 MEMB     129      SAPE     H8R      HEL1     0.150000       1.00800           0
     14705 MEMB     129      SAPE     C29      CEL1    -0.150000       12.0110           0
     14706 MEMB     129      SAPE     H9R      HEL1     0.150000       1.00800           0
     14707 MEMB     129      SAPE     C210     CTL2    -0.180000       12.0110           0
     14708 MEMB     129      SAPE     H10R     HAL2     0.900000E-01   1.00800           0
     14709 MEMB     129      SAPE     H10S     HAL2     0.900000E-01   1.00800           0
     14710 MEMB     129      SAPE     C211     CEL1    -0.150000       12.0110           0
     14711 MEMB     129      SAPE     H11R     HEL1     0.150000       1.00800           0
     14712 MEMB     129      SAPE     C212     CEL1    -0.150000       12.0110           0
     14713 MEMB     129      SAPE     H12R     HEL1     0.150000       1.00800           0
     14714 MEMB     129      SAPE     C213     CTL2    -0.180000       12.0110           0
     14715 MEMB     129      SAPE     H13R     HAL2     0.900000E-01   1.00800           0
     14716 MEMB     129      SAPE     H13S     HAL2     0.900000E-01   1.00800           0
     14717 MEMB     129      SAPE     C214     CEL1    -0.150000       12.0110           0
     14718 MEMB     129      SAPE     H14R     HEL1     0.150000       1.00800           0
     14719 MEMB     129      SAPE     C215     CEL1    -0.150000       12.0110           0
     14720 MEMB     129      SAPE     H15R     HEL1     0.150000       1.00800           0
     14721 MEMB     129      SAPE     C216     CTL2    -0.180000       12.0110           0
     14722 MEMB     129      SAPE     H16R     HAL2     0.900000E-01   1.00800           0
     14723 MEMB     129      SAPE     H16S     HAL2     0.900000E-01   1.00800           0
     14724 MEMB     129      SAPE     C217     CTL2    -0.180000       12.0110           0
     14725 MEMB     129      SAPE     H17R     HAL2     0.900000E-01   1.00800           0
     14726 MEMB     129      SAPE     H17S     HAL2     0.900000E-01   1.00800           0
     14727 MEMB     129      SAPE     C218     CTL2    -0.180000       12.0110           0
     14728 MEMB     129      SAPE     H18R     HAL2     0.900000E-01   1.00800           0
     14729 MEMB     129      SAPE     H18S     HAL2     0.900000E-01   1.00800           0
     14730 MEMB     129      SAPE     C219     CTL2    -0.180000       12.0110           0
     14731 MEMB     129      SAPE     H19R     HAL2     0.900000E-01   1.00800           0
     14732 MEMB     129      SAPE     H19S     HAL2     0.900000E-01   1.00800           0
     14733 MEMB     129      SAPE     C220     CTL3    -0.270000       12.0110           0
     14734 MEMB     129      SAPE     H20R     HAL3     0.900000E-01   1.00800           0
     14735 MEMB     129      SAPE     H20S     HAL3     0.900000E-01   1.00800           0
     14736 MEMB     129      SAPE     H20T     HAL3     0.900000E-01   1.00800           0
     14737 MEMB     129      SAPE     C33      CTL2    -0.180000       12.0110           0
     14738 MEMB     129      SAPE     H3X      HAL2     0.900000E-01   1.00800           0
     14739 MEMB     129      SAPE     H3Y      HAL2     0.900000E-01   1.00800           0
     14740 MEMB     129      SAPE     C34      CTL2    -0.180000       12.0110           0
     14741 MEMB     129      SAPE     H4X      HAL2     0.900000E-01   1.00800           0
     14742 MEMB     129      SAPE     H4Y      HAL2     0.900000E-01   1.00800           0
     14743 MEMB     129      SAPE     C35      CTL2    -0.180000       12.0110           0
     14744 MEMB     129      SAPE     H5X      HAL2     0.900000E-01   1.00800           0
     14745 MEMB     129      SAPE     H5Y      HAL2     0.900000E-01   1.00800           0
     14746 MEMB     129      SAPE     C36      CTL2    -0.180000       12.0110           0
     14747 MEMB     129      SAPE     H6X      HAL2     0.900000E-01   1.00800           0
     14748 MEMB     129      SAPE     H6Y      HAL2     0.900000E-01   1.00800           0
     14749 MEMB     129      SAPE     C37      CTL2    -0.180000       12.0110           0
     14750 MEMB     129      SAPE     H7X      HAL2     0.900000E-01   1.00800           0
     14751 MEMB     129      SAPE     H7Y      HAL2     0.900000E-01   1.00800           0
     14752 MEMB     129      SAPE     C38      CTL2    -0.180000       12.0110           0
     14753 MEMB     129      SAPE     H8X      HAL2     0.900000E-01   1.00800           0
     14754 MEMB     129      SAPE     H8Y      HAL2     0.900000E-01   1.00800           0
     14755 MEMB     129      SAPE     C39      CTL2    -0.180000       12.0110           0
     14756 MEMB     129      SAPE     H9X      HAL2     0.900000E-01   1.00800           0
     14757 MEMB     129      SAPE     H9Y      HAL2     0.900000E-01   1.00800           0
     14758 MEMB     129      SAPE     C310     CTL2    -0.180000       12.0110           0
     14759 MEMB     129      SAPE     H10X     HAL2     0.900000E-01   1.00800           0
     14760 MEMB     129      SAPE     H10Y     HAL2     0.900000E-01   1.00800           0
     14761 MEMB     129      SAPE     C311     CTL2    -0.180000       12.0110           0
     14762 MEMB     129      SAPE     H11X     HAL2     0.900000E-01   1.00800           0
     14763 MEMB     129      SAPE     H11Y     HAL2     0.900000E-01   1.00800           0
     14764 MEMB     129      SAPE     C312     CTL2    -0.180000       12.0110           0
     14765 MEMB     129      SAPE     H12X     HAL2     0.900000E-01   1.00800           0
     14766 MEMB     129      SAPE     H12Y     HAL2     0.900000E-01   1.00800           0
     14767 MEMB     129      SAPE     C313     CTL2    -0.180000       12.0110           0
     14768 MEMB     129      SAPE     H13X     HAL2     0.900000E-01   1.00800           0
     14769 MEMB     129      SAPE     H13Y     HAL2     0.900000E-01   1.00800           0
     14770 MEMB     129      SAPE     C314     CTL2    -0.180000       12.0110           0
     14771 MEMB     129      SAPE     H14X     HAL2     0.900000E-01   1.00800           0
     14772 MEMB     129      SAPE     H14Y     HAL2     0.900000E-01   1.00800           0
     14773 MEMB     129      SAPE     C315     CTL2    -0.180000       12.0110           0
     14774 MEMB     129      SAPE     H15X     HAL2     0.900000E-01   1.00800           0
     14775 MEMB     129      SAPE     H15Y     HAL2     0.900000E-01   1.00800           0
     14776 MEMB     129      SAPE     C316     CTL2    -0.180000       12.0110           0
     14777 MEMB     129      SAPE     H16X     HAL2     0.900000E-01   1.00800           0
     14778 MEMB     129      SAPE     H16Y     HAL2     0.900000E-01   1.00800           0
     14779 MEMB     129      SAPE     C317     CTL2    -0.180000       12.0110           0
     14780 MEMB     129      SAPE     H17X     HAL2     0.900000E-01   1.00800           0
     14781 MEMB     129      SAPE     H17Y     HAL2     0.900000E-01   1.00800           0
     14782 MEMB     129      SAPE     C318     CTL3    -0.270000       12.0110           0
     14783 MEMB     129      SAPE     H18X     HAL3     0.900000E-01   1.00800           0
     14784 MEMB     129      SAPE     H18Y     HAL3     0.900000E-01   1.00800           0
     14785 MEMB     129      SAPE     H18Z     HAL3     0.900000E-01   1.00800           0
     14786 MEMB     130      CHL1     C3       CRL1     0.140000       12.0110           0
     14787 MEMB     130      CHL1     H3       HGA1     0.900000E-01   1.00800           0
     14788 MEMB     130      CHL1     O3       OHL     -0.660000       15.9994           0
     14789 MEMB     130      CHL1     H3'      HOL      0.430000       1.00800           0
     14790 MEMB     130      CHL1     C4       CRL2    -0.180000       12.0110           0
     14791 MEMB     130      CHL1     H4A      HGA2     0.900000E-01   1.00800           0
     14792 MEMB     130      CHL1     H4B      HGA2     0.900000E-01   1.00800           0
     14793 MEMB     130      CHL1     C5       CEL1      0.00000       12.0110           0
     14794 MEMB     130      CHL1     C6       CEL1    -0.150000       12.0110           0
     14795 MEMB     130      CHL1     H6       HEL1     0.150000       1.00800           0
     14796 MEMB     130      CHL1     C7       CRL2    -0.180000       12.0110           0
     14797 MEMB     130      CHL1     H7A      HGA2     0.900000E-01   1.00800           0
     14798 MEMB     130      CHL1     H7B      HGA2     0.900000E-01   1.00800           0
     14799 MEMB     130      CHL1     C8       CRL1    -0.900000E-01   12.0110           0
     14800 MEMB     130      CHL1     H8       HGA1     0.900000E-01   1.00800           0
     14801 MEMB     130      CHL1     C14      CRL1    -0.900000E-01   12.0110           0
     14802 MEMB     130      CHL1     H14      HGA1     0.900000E-01   1.00800           0
     14803 MEMB     130      CHL1     C15      CRL2    -0.180000       12.0110           0
     14804 MEMB     130      CHL1     H15A     HGA2     0.900000E-01   1.00800           0
     14805 MEMB     130      CHL1     H15B     HGA2     0.900000E-01   1.00800           0
     14806 MEMB     130      CHL1     C16      CRL2    -0.180000       12.0110           0
     14807 MEMB     130      CHL1     H16A     HGA2     0.900000E-01   1.00800           0
     14808 MEMB     130      CHL1     H16B     HGA2     0.900000E-01   1.00800           0
     14809 MEMB     130      CHL1     C17      CRL1    -0.900000E-01   12.0110           0
     14810 MEMB     130      CHL1     H17      HGA1     0.900000E-01   1.00800           0
     14811 MEMB     130      CHL1     C13      CRL1      0.00000       12.0110           0
     14812 MEMB     130      CHL1     C18      CTL3    -0.270000       12.0110           0
     14813 MEMB     130      CHL1     H18A     HAL3     0.900000E-01   1.00800           0
     14814 MEMB     130      CHL1     H18B     HAL3     0.900000E-01   1.00800           0
     14815 MEMB     130      CHL1     H18C     HAL3     0.900000E-01   1.00800           0
     14816 MEMB     130      CHL1     C12      CRL2    -0.180000       12.0110           0
     14817 MEMB     130      CHL1     H12A     HGA2     0.900000E-01   1.00800           0
     14818 MEMB     130      CHL1     H12B     HGA2     0.900000E-01   1.00800           0
     14819 MEMB     130      CHL1     C11      CRL2    -0.180000       12.0110           0
     14820 MEMB     130      CHL1     H11A     HGA2     0.900000E-01   1.00800           0
     14821 MEMB     130      CHL1     H11B     HGA2     0.900000E-01   1.00800           0
     14822 MEMB     130      CHL1     C9       CRL1    -0.900000E-01   12.0110           0
     14823 MEMB     130      CHL1     H9       HGA1     0.900000E-01   1.00800           0
     14824 MEMB     130      CHL1     C10      CRL1      0.00000       12.0110           0
     14825 MEMB     130      CHL1     C19      CTL3    -0.270000       12.0110           0
     14826 MEMB     130      CHL1     H19A     HAL3     0.900000E-01   1.00800           0
     14827 MEMB     130      CHL1     H19B     HAL3     0.900000E-01   1.00800           0
     14828 MEMB     130      CHL1     H19C     HAL3     0.900000E-01   1.00800           0
     14829 MEMB     130      CHL1     C1       CRL2    -0.180000       12.0110           0
     14830 MEMB     130      CHL1     H1A      HGA2     0.900000E-01   1.00800           0
     14831 MEMB     130      CHL1     H1B      HGA2     0.900000E-01   1.00800           0
     14832 MEMB     130      CHL1     C2       CRL2    -0.180000       12.0110           0
     14833 MEMB     130      CHL1     H2A      HGA2     0.900000E-01   1.00800           0
     14834 MEMB     130      CHL1     H2B      HGA2     0.900000E-01   1.00800           0
     14835 MEMB     130      CHL1     C20      CTL1    -0.900000E-01   12.0110           0
     14836 MEMB     130      CHL1     H20      HAL1     0.900000E-01   1.00800           0
     14837 MEMB     130      CHL1     C21      CTL3    -0.270000       12.0110           0
     14838 MEMB     130      CHL1     H21A     HAL3     0.900000E-01   1.00800           0
     14839 MEMB     130      CHL1     H21B     HAL3     0.900000E-01   1.00800           0
     14840 MEMB     130      CHL1     H21C     HAL3     0.900000E-01   1.00800           0
     14841 MEMB     130      CHL1     C22      CTL2    -0.180000       12.0110           0
     14842 MEMB     130      CHL1     H22A     HAL2     0.900000E-01   1.00800           0
     14843 MEMB     130      CHL1     H22B     HAL2     0.900000E-01   1.00800           0
     14844 MEMB     130      CHL1     C23      CTL2    -0.180000       12.0110           0
     14845 MEMB     130      CHL1     H23A     HAL2     0.900000E-01   1.00800           0
     14846 MEMB     130      CHL1     H23B     HAL2     0.900000E-01   1.00800           0
     14847 MEMB     130      CHL1     C24      CTL2    -0.180000       12.0110           0
     14848 MEMB     130      CHL1     H24A     HAL2     0.900000E-01   1.00800           0
     14849 MEMB     130      CHL1     H24B     HAL2     0.900000E-01   1.00800           0
     14850 MEMB     130      CHL1     C25      CTL1    -0.900000E-01   12.0110           0
     14851 MEMB     130      CHL1     H25      HAL1     0.900000E-01   1.00800           0
     14852 MEMB     130      CHL1     C26      CTL3    -0.270000       12.0110           0
     14853 MEMB     130      CHL1     H26A     HAL3     0.900000E-01   1.00800           0
     14854 MEMB     130      CHL1     H26B     HAL3     0.900000E-01   1.00800           0
     14855 MEMB     130      CHL1     H26C     HAL3     0.900000E-01   1.00800           0
     14856 MEMB     130      CHL1     C27      CTL3    -0.270000       12.0110           0
     14857 MEMB     130      CHL1     H27A     HAL3     0.900000E-01   1.00800           0
     14858 MEMB     130      CHL1     H27B     HAL3     0.900000E-01   1.00800           0
     14859 MEMB     130      CHL1     H27C     HAL3     0.900000E-01   1.00800           0
     14860 MEMB     131      SAPS     N        NH3L    -0.300000       14.0070           0
     14861 MEMB     131      SAPS     HN1      HCL      0.330000       1.00800           0
     14862 MEMB     131      SAPS     HN2      HCL      0.330000       1.00800           0
     14863 MEMB     131      SAPS     HN3      HCL      0.330000       1.00800           0
     14864 MEMB     131      SAPS     C12      CTL1     0.210000       12.0110           0
     14865 MEMB     131      SAPS     H12A     HBL      0.100000       1.00800           0
     14866 MEMB     131      SAPS     C13      CCL      0.340000       12.0110           0
     14867 MEMB     131      SAPS     O13A     OCL     -0.670000       15.9994           0
     14868 MEMB     131      SAPS     O13B     OCL     -0.670000       15.9994           0
     14869 MEMB     131      SAPS     C11      CTL2    -0.800000E-01   12.0110           0
     14870 MEMB     131      SAPS     H11A     HAL2     0.900000E-01   1.00800           0
     14871 MEMB     131      SAPS     H11B     HAL2     0.900000E-01   1.00800           0
     14872 MEMB     131      SAPS     P        PL        1.50000       30.9740           0
     14873 MEMB     131      SAPS     O13      O2L     -0.780000       15.9994           0
     14874 MEMB     131      SAPS     O14      O2L     -0.780000       15.9994           0
     14875 MEMB     131      SAPS     O12      OSLP    -0.570000       15.9994           0
     14876 MEMB     131      SAPS     O11      OSLP    -0.570000       15.9994           0
     14877 MEMB     131      SAPS     C1       CTL2    -0.800000E-01   12.0110           0
     14878 MEMB     131      SAPS     HA       HAL2     0.900000E-01   1.00800           0
     14879 MEMB     131      SAPS     HB       HAL2     0.900000E-01   1.00800           0
     14880 MEMB     131      SAPS     C2       CTL1     0.170000       12.0110           0
     14881 MEMB     131      SAPS     HS       HAL1     0.900000E-01   1.00800           0
     14882 MEMB     131      SAPS     O21      OSL     -0.490000       15.9994           0
     14883 MEMB     131      SAPS     C21      CL       0.900000       12.0110           0
     14884 MEMB     131      SAPS     O22      OBL     -0.630000       15.9994           0
     14885 MEMB     131      SAPS     C22      CTL2    -0.220000       12.0110           0
     14886 MEMB     131      SAPS     H2R      HAL2     0.900000E-01   1.00800           0
     14887 MEMB     131      SAPS     H2S      HAL2     0.900000E-01   1.00800           0
     14888 MEMB     131      SAPS     C3       CTL2     0.800000E-01   12.0110           0
     14889 MEMB     131      SAPS     HX       HAL2     0.900000E-01   1.00800           0
     14890 MEMB     131      SAPS     HY       HAL2     0.900000E-01   1.00800           0
     14891 MEMB     131      SAPS     O31      OSL     -0.490000       15.9994           0
     14892 MEMB     131      SAPS     C31      CL       0.900000       12.0110           0
     14893 MEMB     131      SAPS     O32      OBL     -0.630000       15.9994           0
     14894 MEMB     131      SAPS     C32      CTL2    -0.220000       12.0110           0
     14895 MEMB     131      SAPS     H2X      HAL2     0.900000E-01   1.00800           0
     14896 MEMB     131      SAPS     H2Y      HAL2     0.900000E-01   1.00800           0
     14897 MEMB     131      SAPS     C23      CTL2    -0.180000       12.0110           0
     14898 MEMB     131      SAPS     H3R      HAL2     0.900000E-01   1.00800           0
     14899 MEMB     131      SAPS     H3S      HAL2     0.900000E-01   1.00800           0
     14900 MEMB     131      SAPS     C24      CTL2    -0.180000       12.0110           0
     14901 MEMB     131      SAPS     H4R      HAL2     0.900000E-01   1.00800           0
     14902 MEMB     131      SAPS     H4S      HAL2     0.900000E-01   1.00800           0
     14903 MEMB     131      SAPS     C25      CEL1    -0.150000       12.0110           0
     14904 MEMB     131      SAPS     H5R      HEL1     0.150000       1.00800           0
     14905 MEMB     131      SAPS     C26      CEL1    -0.150000       12.0110           0
     14906 MEMB     131      SAPS     H6R      HEL1     0.150000       1.00800           0
     14907 MEMB     131      SAPS     C27      CTL2    -0.180000       12.0110           0
     14908 MEMB     131      SAPS     H7R      HAL2     0.900000E-01   1.00800           0
     14909 MEMB     131      SAPS     H7S      HAL2     0.900000E-01   1.00800           0
     14910 MEMB     131      SAPS     C28      CEL1    -0.150000       12.0110           0
     14911 MEMB     131      SAPS     H8R      HEL1     0.150000       1.00800           0
     14912 MEMB     131      SAPS     C29      CEL1    -0.150000       12.0110           0
     14913 MEMB     131      SAPS     H9R      HEL1     0.150000       1.00800           0
     14914 MEMB     131      SAPS     C210     CTL2    -0.180000       12.0110           0
     14915 MEMB     131      SAPS     H10R     HAL2     0.900000E-01   1.00800           0
     14916 MEMB     131      SAPS     H10S     HAL2     0.900000E-01   1.00800           0
     14917 MEMB     131      SAPS     C211     CEL1    -0.150000       12.0110           0
     14918 MEMB     131      SAPS     H11R     HEL1     0.150000       1.00800           0
     14919 MEMB     131      SAPS     C212     CEL1    -0.150000       12.0110           0
     14920 MEMB     131      SAPS     H12R     HEL1     0.150000       1.00800           0
     14921 MEMB     131      SAPS     C213     CTL2    -0.180000       12.0110           0
     14922 MEMB     131      SAPS     H13R     HAL2     0.900000E-01   1.00800           0
     14923 MEMB     131      SAPS     H13S     HAL2     0.900000E-01   1.00800           0
     14924 MEMB     131      SAPS     C214     CEL1    -0.150000       12.0110           0
     14925 MEMB     131      SAPS     H14R     HEL1     0.150000       1.00800           0
     14926 MEMB     131      SAPS     C215     CEL1    -0.150000       12.0110           0
     14927 MEMB     131      SAPS     H15R     HEL1     0.150000       1.00800           0
     14928 MEMB     131      SAPS     C216     CTL2    -0.180000       12.0110           0
     14929 MEMB     131      SAPS     H16R     HAL2     0.900000E-01   1.00800           0
     14930 MEMB     131      SAPS     H16S     HAL2     0.900000E-01   1.00800           0
     14931 MEMB     131      SAPS     C217     CTL2    -0.180000       12.0110           0
     14932 MEMB     131      SAPS     H17R     HAL2     0.900000E-01   1.00800           0
     14933 MEMB     131      SAPS     H17S     HAL2     0.900000E-01   1.00800           0
     14934 MEMB     131      SAPS     C218     CTL2    -0.180000       12.0110           0
     14935 MEMB     131      SAPS     H18R     HAL2     0.900000E-01   1.00800           0
     14936 MEMB     131      SAPS     H18S     HAL2     0.900000E-01   1.00800           0
     14937 MEMB     131      SAPS     C219     CTL2    -0.180000       12.0110           0
     14938 MEMB     131      SAPS     H19R     HAL2     0.900000E-01   1.00800           0
     14939 MEMB     131      SAPS     H19S     HAL2     0.900000E-01   1.00800           0
     14940 MEMB     131      SAPS     C220     CTL3    -0.270000       12.0110           0
     14941 MEMB     131      SAPS     H20R     HAL3     0.900000E-01   1.00800           0
     14942 MEMB     131      SAPS     H20S     HAL3     0.900000E-01   1.00800           0
     14943 MEMB     131      SAPS     H20T     HAL3     0.900000E-01   1.00800           0
     14944 MEMB     131      SAPS     C33      CTL2    -0.180000       12.0110           0
     14945 MEMB     131      SAPS     H3X      HAL2     0.900000E-01   1.00800           0
     14946 MEMB     131      SAPS     H3Y      HAL2     0.900000E-01   1.00800           0
     14947 MEMB     131      SAPS     C34      CTL2    -0.180000       12.0110           0
     14948 MEMB     131      SAPS     H4X      HAL2     0.900000E-01   1.00800           0
     14949 MEMB     131      SAPS     H4Y      HAL2     0.900000E-01   1.00800           0
     14950 MEMB     131      SAPS     C35      CTL2    -0.180000       12.0110           0
     14951 MEMB     131      SAPS     H5X      HAL2     0.900000E-01   1.00800           0
     14952 MEMB     131      SAPS     H5Y      HAL2     0.900000E-01   1.00800           0
     14953 MEMB     131      SAPS     C36      CTL2    -0.180000       12.0110           0
     14954 MEMB     131      SAPS     H6X      HAL2     0.900000E-01   1.00800           0
     14955 MEMB     131      SAPS     H6Y      HAL2     0.900000E-01   1.00800           0
     14956 MEMB     131      SAPS     C37      CTL2    -0.180000       12.0110           0
     14957 MEMB     131      SAPS     H7X      HAL2     0.900000E-01   1.00800           0
     14958 MEMB     131      SAPS     H7Y      HAL2     0.900000E-01   1.00800           0
     14959 MEMB     131      SAPS     C38      CTL2    -0.180000       12.0110           0
     14960 MEMB     131      SAPS     H8X      HAL2     0.900000E-01   1.00800           0
     14961 MEMB     131      SAPS     H8Y      HAL2     0.900000E-01   1.00800           0
     14962 MEMB     131      SAPS     C39      CTL2    -0.180000       12.0110           0
     14963 MEMB     131      SAPS     H9X      HAL2     0.900000E-01   1.00800           0
     14964 MEMB     131      SAPS     H9Y      HAL2     0.900000E-01   1.00800           0
     14965 MEMB     131      SAPS     C310     CTL2    -0.180000       12.0110           0
     14966 MEMB     131      SAPS     H10X     HAL2     0.900000E-01   1.00800           0
     14967 MEMB     131      SAPS     H10Y     HAL2     0.900000E-01   1.00800           0
     14968 MEMB     131      SAPS     C311     CTL2    -0.180000       12.0110           0
     14969 MEMB     131      SAPS     H11X     HAL2     0.900000E-01   1.00800           0
     14970 MEMB     131      SAPS     H11Y     HAL2     0.900000E-01   1.00800           0
     14971 MEMB     131      SAPS     C312     CTL2    -0.180000       12.0110           0
     14972 MEMB     131      SAPS     H12X     HAL2     0.900000E-01   1.00800           0
     14973 MEMB     131      SAPS     H12Y     HAL2     0.900000E-01   1.00800           0
     14974 MEMB     131      SAPS     C313     CTL2    -0.180000       12.0110           0
     14975 MEMB     131      SAPS     H13X     HAL2     0.900000E-01   1.00800           0
     14976 MEMB     131      SAPS     H13Y     HAL2     0.900000E-01   1.00800           0
     14977 MEMB     131      SAPS     C314     CTL2    -0.180000       12.0110           0
     14978 MEMB     131      SAPS     H14X     HAL2     0.900000E-01   1.00800           0
     14979 MEMB     131      SAPS     H14Y     HAL2     0.900000E-01   1.00800           0
     14980 MEMB     131      SAPS     C315     CTL2    -0.180000       12.0110           0
     14981 MEMB     131      SAPS     H15X     HAL2     0.900000E-01   1.00800           0
     14982 MEMB     131      SAPS     H15Y     HAL2     0.900000E-01   1.00800           0
     14983 MEMB     131      SAPS     C316     CTL2    -0.180000       12.0110           0
     14984 MEMB     131      SAPS     H16X     HAL2     0.900000E-01   1.00800           0
     14985 MEMB     131      SAPS     H16Y     HAL2     0.900000E-01   1.00800           0
     14986 MEMB     131      SAPS     C317     CTL2    -0.180000       12.0110           0
     14987 MEMB     131      SAPS     H17X     HAL2     0.900000E-01   1.00800           0
     14988 MEMB     131      SAPS     H17Y     HAL2     0.900000E-01   1.00800           0
     14989 MEMB     131      SAPS     C318     CTL3    -0.270000       12.0110           0
     14990 MEMB     131      SAPS     H18X     HAL3     0.900000E-01   1.00800           0
     14991 MEMB     131      SAPS     H18Y     HAL3     0.900000E-01   1.00800           0
     14992 MEMB     131      SAPS     H18Z     HAL3     0.900000E-01   1.00800           0
     14993 MEMB     132      OSM      N        NTL     -0.600000       14.0070           0
     14994 MEMB     132      OSM      C15      CTL5    -0.350000       12.0110           0
     14995 MEMB     132      OSM      H15A     HL       0.250000       1.00800           0
     14996 MEMB     132      OSM      H15B     HL       0.250000       1.00800           0
     14997 MEMB     132      OSM      H15C     HL       0.250000       1.00800           0
     14998 MEMB     132      OSM      C14      CTL5    -0.350000       12.0110           0
     14999 MEMB     132      OSM      H14A     HL       0.250000       1.00800           0
     15000 MEMB     132      OSM      H14B     HL       0.250000       1.00800           0
     15001 MEMB     132      OSM      H14C     HL       0.250000       1.00800           0
     15002 MEMB     132      OSM      C13      CTL5    -0.350000       12.0110           0
     15003 MEMB     132      OSM      H13A     HL       0.250000       1.00800           0
     15004 MEMB     132      OSM      H13B     HL       0.250000       1.00800           0
     15005 MEMB     132      OSM      H13C     HL       0.250000       1.00800           0
     15006 MEMB     132      OSM      C12      CTL2    -0.100000       12.0110           0
     15007 MEMB     132      OSM      H12A     HL       0.250000       1.00800           0
     15008 MEMB     132      OSM      H12B     HL       0.250000       1.00800           0
     15009 MEMB     132      OSM      C11      CTL2    -0.800000E-01   12.0110           0
     15010 MEMB     132      OSM      H11A     HAL2     0.900000E-01   1.00800           0
     15011 MEMB     132      OSM      H11B     HAL2     0.900000E-01   1.00800           0
     15012 MEMB     132      OSM      P        PL        1.50000       30.9740           0
     15013 MEMB     132      OSM      O13      O2L     -0.780000       15.9994           0
     15014 MEMB     132      OSM      O14      O2L     -0.780000       15.9994           0
     15015 MEMB     132      OSM      O11      OSLP    -0.570000       15.9994           0
     15016 MEMB     132      OSM      O12      OSLP    -0.570000       15.9994           0
     15017 MEMB     132      OSM      C1S      CTL2    -0.800000E-01   12.0110           0
     15018 MEMB     132      OSM      H1S      HAL2     0.900000E-01   1.00800           0
     15019 MEMB     132      OSM      H1T      HAL2     0.900000E-01   1.00800           0
     15020 MEMB     132      OSM      NF       NHL     -0.700000       14.0070           0
     15021 MEMB     132      OSM      HNF      H        0.350000       1.00800           0
     15022 MEMB     132      OSM      C2S      CTL1     0.300000       12.0110           0
     15023 MEMB     132      OSM      H2S      HAL1     0.500000E-01   1.00800           0
     15024 MEMB     132      OSM      C3S      CTO1     0.500000       12.0110           0
     15025 MEMB     132      OSM      H3S      HAL1    -0.110000       1.00800           0
     15026 MEMB     132      OSM      O3       OHL     -0.690000       15.9994           0
     15027 MEMB     132      OSM      HO3      HOL      0.300000       1.00800           0
     15028 MEMB     132      OSM      C4S      CEL3    -0.150000       12.0110           0
     15029 MEMB     132      OSM      H4S      HEL1     0.150000       1.00800           0
     15030 MEMB     132      OSM      C5S      CEL3    -0.150000       12.0110           0
     15031 MEMB     132      OSM      H5S      HEL1     0.150000       1.00800           0
     15032 MEMB     132      OSM      C6S      CTL2    -0.180000       12.0110           0
     15033 MEMB     132      OSM      H6S      HAL2     0.900000E-01   1.00800           0
     15034 MEMB     132      OSM      H6T      HAL2     0.900000E-01   1.00800           0
     15035 MEMB     132      OSM      C7S      CTL2    -0.180000       12.0110           0
     15036 MEMB     132      OSM      H7S      HAL2     0.900000E-01   1.00800           0
     15037 MEMB     132      OSM      H7T      HAL2     0.900000E-01   1.00800           0
     15038 MEMB     132      OSM      C8S      CTL2    -0.180000       12.0110           0
     15039 MEMB     132      OSM      H8S      HAL2     0.900000E-01   1.00800           0
     15040 MEMB     132      OSM      H8T      HAL2     0.900000E-01   1.00800           0
     15041 MEMB     132      OSM      C9S      CTL2    -0.180000       12.0110           0
     15042 MEMB     132      OSM      H9S      HAL2     0.900000E-01   1.00800           0
     15043 MEMB     132      OSM      H9T      HAL2     0.900000E-01   1.00800           0
     15044 MEMB     132      OSM      C10S     CTL2    -0.180000       12.0110           0
     15045 MEMB     132      OSM      H10S     HAL2     0.900000E-01   1.00800           0
     15046 MEMB     132      OSM      H10T     HAL2     0.900000E-01   1.00800           0
     15047 MEMB     132      OSM      C11S     CTL2    -0.180000       12.0110           0
     15048 MEMB     132      OSM      H11S     HAL2     0.900000E-01   1.00800           0
     15049 MEMB     132      OSM      H11T     HAL2     0.900000E-01   1.00800           0
     15050 MEMB     132      OSM      C12S     CTL2    -0.180000       12.0110           0
     15051 MEMB     132      OSM      H12S     HAL2     0.900000E-01   1.00800           0
     15052 MEMB     132      OSM      H12T     HAL2     0.900000E-01   1.00800           0
     15053 MEMB     132      OSM      C13S     CTL2    -0.180000       12.0110           0
     15054 MEMB     132      OSM      H13S     HAL2     0.900000E-01   1.00800           0
     15055 MEMB     132      OSM      H13T     HAL2     0.900000E-01   1.00800           0
     15056 MEMB     132      OSM      C14S     CTL2    -0.180000       12.0110           0
     15057 MEMB     132      OSM      H14S     HAL2     0.900000E-01   1.00800           0
     15058 MEMB     132      OSM      H14T     HAL2     0.900000E-01   1.00800           0
     15059 MEMB     132      OSM      C15S     CTL2    -0.180000       12.0110           0
     15060 MEMB     132      OSM      H15S     HAL2     0.900000E-01   1.00800           0
     15061 MEMB     132      OSM      H15T     HAL2     0.900000E-01   1.00800           0
     15062 MEMB     132      OSM      C16S     CTL2    -0.180000       12.0110           0
     15063 MEMB     132      OSM      H16S     HAL2     0.900000E-01   1.00800           0
     15064 MEMB     132      OSM      H16T     HAL2     0.900000E-01   1.00800           0
     15065 MEMB     132      OSM      C17S     CTL2    -0.180000       12.0110           0
     15066 MEMB     132      OSM      H17S     HAL2     0.900000E-01   1.00800           0
     15067 MEMB     132      OSM      H17T     HAL2     0.900000E-01   1.00800           0
     15068 MEMB     132      OSM      C18S     CTL3    -0.270000       12.0110           0
     15069 MEMB     132      OSM      H18S     HAL3     0.900000E-01   1.00800           0
     15070 MEMB     132      OSM      H18T     HAL3     0.900000E-01   1.00800           0
     15071 MEMB     132      OSM      H18U     HAL3     0.900000E-01   1.00800           0
     15072 MEMB     132      OSM      C1F      C        0.550000       12.0110           0
     15073 MEMB     132      OSM      OF       O       -0.600000       15.9994           0
     15074 MEMB     132      OSM      C2F      CTL2    -0.700000E-01   12.0110           0
     15075 MEMB     132      OSM      H2F      HAL2     0.600000E-01   1.00800           0
     15076 MEMB     132      OSM      H2G      HAL2     0.600000E-01   1.00800           0
     15077 MEMB     132      OSM      C3F      CTL2    -0.180000       12.0110           0
     15078 MEMB     132      OSM      H3F      HAL2     0.900000E-01   1.00800           0
     15079 MEMB     132      OSM      H3G      HAL2     0.900000E-01   1.00800           0
     15080 MEMB     132      OSM      C4F      CTL2    -0.180000       12.0110           0
     15081 MEMB     132      OSM      H4F      HAL2     0.900000E-01   1.00800           0
     15082 MEMB     132      OSM      H4G      HAL2     0.900000E-01   1.00800           0
     15083 MEMB     132      OSM      C5F      CTL2    -0.180000       12.0110           0
     15084 MEMB     132      OSM      H5F      HAL2     0.900000E-01   1.00800           0
     15085 MEMB     132      OSM      H5G      HAL2     0.900000E-01   1.00800           0
     15086 MEMB     132      OSM      C6F      CTL2    -0.180000       12.0110           0
     15087 MEMB     132      OSM      H6F      HAL2     0.900000E-01   1.00800           0
     15088 MEMB     132      OSM      H6G      HAL2     0.900000E-01   1.00800           0
     15089 MEMB     132      OSM      C7F      CTL2    -0.180000       12.0110           0
     15090 MEMB     132      OSM      H7F      HAL2     0.900000E-01   1.00800           0
     15091 MEMB     132      OSM      H7G      HAL2     0.900000E-01   1.00800           0
     15092 MEMB     132      OSM      C8F      CTL2    -0.180000       12.0110           0
     15093 MEMB     132      OSM      H8F      HAL2     0.900000E-01   1.00800           0
     15094 MEMB     132      OSM      H8G      HAL2     0.900000E-01   1.00800           0
     15095 MEMB     132      OSM      C9F      CEL1    -0.150000       12.0110           0
     15096 MEMB     132      OSM      H9F      HEL1     0.150000       1.00800           0
     15097 MEMB     132      OSM      C10F     CEL1    -0.150000       12.0110           0
     15098 MEMB     132      OSM      H10F     HEL1     0.150000       1.00800           0
     15099 MEMB     132      OSM      C11F     CTL2    -0.180000       12.0110           0
     15100 MEMB     132      OSM      H11F     HAL2     0.900000E-01   1.00800           0
     15101 MEMB     132      OSM      H11G     HAL2     0.900000E-01   1.00800           0
     15102 MEMB     132      OSM      C12F     CTL2    -0.180000       12.0110           0
     15103 MEMB     132      OSM      H12F     HAL2     0.900000E-01   1.00800           0
     15104 MEMB     132      OSM      H12G     HAL2     0.900000E-01   1.00800           0
     15105 MEMB     132      OSM      C13F     CTL2    -0.180000       12.0110           0
     15106 MEMB     132      OSM      H13F     HAL2     0.900000E-01   1.00800           0
     15107 MEMB     132      OSM      H13G     HAL2     0.900000E-01   1.00800           0
     15108 MEMB     132      OSM      C14F     CTL2    -0.180000       12.0110           0
     15109 MEMB     132      OSM      H14F     HAL2     0.900000E-01   1.00800           0
     15110 MEMB     132      OSM      H14G     HAL2     0.900000E-01   1.00800           0
     15111 MEMB     132      OSM      C15F     CTL2    -0.180000       12.0110           0
     15112 MEMB     132      OSM      H15F     HAL2     0.900000E-01   1.00800           0
     15113 MEMB     132      OSM      H15G     HAL2     0.900000E-01   1.00800           0
     15114 MEMB     132      OSM      C16F     CTL2    -0.180000       12.0110           0
     15115 MEMB     132      OSM      H16F     HAL2     0.900000E-01   1.00800           0
     15116 MEMB     132      OSM      H16G     HAL2     0.900000E-01   1.00800           0
     15117 MEMB     132      OSM      C17F     CTL2    -0.180000       12.0110           0
     15118 MEMB     132      OSM      H17F     HAL2     0.900000E-01   1.00800           0
     15119 MEMB     132      OSM      H17G     HAL2     0.900000E-01   1.00800           0
     15120 MEMB     132      OSM      C18F     CTL3    -0.270000       12.0110           0
     15121 MEMB     132      OSM      H18F     HAL3     0.900000E-01   1.00800           0
     15122 MEMB     132      OSM      H18G     HAL3     0.900000E-01   1.00800           0
     15123 MEMB     132      OSM      H18H     HAL3     0.900000E-01   1.00800           0
     15124 MEMB     133      OSM      N        NTL     -0.600000       14.0070           0
     15125 MEMB     133      OSM      C15      CTL5    -0.350000       12.0110           0
     15126 MEMB     133      OSM      H15A     HL       0.250000       1.00800           0
     15127 MEMB     133      OSM      H15B     HL       0.250000       1.00800           0
     15128 MEMB     133      OSM      H15C     HL       0.250000       1.00800           0
     15129 MEMB     133      OSM      C14      CTL5    -0.350000       12.0110           0
     15130 MEMB     133      OSM      H14A     HL       0.250000       1.00800           0
     15131 MEMB     133      OSM      H14B     HL       0.250000       1.00800           0
     15132 MEMB     133      OSM      H14C     HL       0.250000       1.00800           0
     15133 MEMB     133      OSM      C13      CTL5    -0.350000       12.0110           0
     15134 MEMB     133      OSM      H13A     HL       0.250000       1.00800           0
     15135 MEMB     133      OSM      H13B     HL       0.250000       1.00800           0
     15136 MEMB     133      OSM      H13C     HL       0.250000       1.00800           0
     15137 MEMB     133      OSM      C12      CTL2    -0.100000       12.0110           0
     15138 MEMB     133      OSM      H12A     HL       0.250000       1.00800           0
     15139 MEMB     133      OSM      H12B     HL       0.250000       1.00800           0
     15140 MEMB     133      OSM      C11      CTL2    -0.800000E-01   12.0110           0
     15141 MEMB     133      OSM      H11A     HAL2     0.900000E-01   1.00800           0
     15142 MEMB     133      OSM      H11B     HAL2     0.900000E-01   1.00800           0
     15143 MEMB     133      OSM      P        PL        1.50000       30.9740           0
     15144 MEMB     133      OSM      O13      O2L     -0.780000       15.9994           0
     15145 MEMB     133      OSM      O14      O2L     -0.780000       15.9994           0
     15146 MEMB     133      OSM      O11      OSLP    -0.570000       15.9994           0
     15147 MEMB     133      OSM      O12      OSLP    -0.570000       15.9994           0
     15148 MEMB     133      OSM      C1S      CTL2    -0.800000E-01   12.0110           0
     15149 MEMB     133      OSM      H1S      HAL2     0.900000E-01   1.00800           0
     15150 MEMB     133      OSM      H1T      HAL2     0.900000E-01   1.00800           0
     15151 MEMB     133      OSM      NF       NHL     -0.700000       14.0070           0
     15152 MEMB     133      OSM      HNF      H        0.350000       1.00800           0
     15153 MEMB     133      OSM      C2S      CTL1     0.300000       12.0110           0
     15154 MEMB     133      OSM      H2S      HAL1     0.500000E-01   1.00800           0
     15155 MEMB     133      OSM      C3S      CTO1     0.500000       12.0110           0
     15156 MEMB     133      OSM      H3S      HAL1    -0.110000       1.00800           0
     15157 MEMB     133      OSM      O3       OHL     -0.690000       15.9994           0
     15158 MEMB     133      OSM      HO3      HOL      0.300000       1.00800           0
     15159 MEMB     133      OSM      C4S      CEL3    -0.150000       12.0110           0
     15160 MEMB     133      OSM      H4S      HEL1     0.150000       1.00800           0
     15161 MEMB     133      OSM      C5S      CEL3    -0.150000       12.0110           0
     15162 MEMB     133      OSM      H5S      HEL1     0.150000       1.00800           0
     15163 MEMB     133      OSM      C6S      CTL2    -0.180000       12.0110           0
     15164 MEMB     133      OSM      H6S      HAL2     0.900000E-01   1.00800           0
     15165 MEMB     133      OSM      H6T      HAL2     0.900000E-01   1.00800           0
     15166 MEMB     133      OSM      C7S      CTL2    -0.180000       12.0110           0
     15167 MEMB     133      OSM      H7S      HAL2     0.900000E-01   1.00800           0
     15168 MEMB     133      OSM      H7T      HAL2     0.900000E-01   1.00800           0
     15169 MEMB     133      OSM      C8S      CTL2    -0.180000       12.0110           0
     15170 MEMB     133      OSM      H8S      HAL2     0.900000E-01   1.00800           0
     15171 MEMB     133      OSM      H8T      HAL2     0.900000E-01   1.00800           0
     15172 MEMB     133      OSM      C9S      CTL2    -0.180000       12.0110           0
     15173 MEMB     133      OSM      H9S      HAL2     0.900000E-01   1.00800           0
     15174 MEMB     133      OSM      H9T      HAL2     0.900000E-01   1.00800           0
     15175 MEMB     133      OSM      C10S     CTL2    -0.180000       12.0110           0
     15176 MEMB     133      OSM      H10S     HAL2     0.900000E-01   1.00800           0
     15177 MEMB     133      OSM      H10T     HAL2     0.900000E-01   1.00800           0
     15178 MEMB     133      OSM      C11S     CTL2    -0.180000       12.0110           0
     15179 MEMB     133      OSM      H11S     HAL2     0.900000E-01   1.00800           0
     15180 MEMB     133      OSM      H11T     HAL2     0.900000E-01   1.00800           0
     15181 MEMB     133      OSM      C12S     CTL2    -0.180000       12.0110           0
     15182 MEMB     133      OSM      H12S     HAL2     0.900000E-01   1.00800           0
     15183 MEMB     133      OSM      H12T     HAL2     0.900000E-01   1.00800           0
     15184 MEMB     133      OSM      C13S     CTL2    -0.180000       12.0110           0
     15185 MEMB     133      OSM      H13S     HAL2     0.900000E-01   1.00800           0
     15186 MEMB     133      OSM      H13T     HAL2     0.900000E-01   1.00800           0
     15187 MEMB     133      OSM      C14S     CTL2    -0.180000       12.0110           0
     15188 MEMB     133      OSM      H14S     HAL2     0.900000E-01   1.00800           0
     15189 MEMB     133      OSM      H14T     HAL2     0.900000E-01   1.00800           0
     15190 MEMB     133      OSM      C15S     CTL2    -0.180000       12.0110           0
     15191 MEMB     133      OSM      H15S     HAL2     0.900000E-01   1.00800           0
     15192 MEMB     133      OSM      H15T     HAL2     0.900000E-01   1.00800           0
     15193 MEMB     133      OSM      C16S     CTL2    -0.180000       12.0110           0
     15194 MEMB     133      OSM      H16S     HAL2     0.900000E-01   1.00800           0
     15195 MEMB     133      OSM      H16T     HAL2     0.900000E-01   1.00800           0
     15196 MEMB     133      OSM      C17S     CTL2    -0.180000       12.0110           0
     15197 MEMB     133      OSM      H17S     HAL2     0.900000E-01   1.00800           0
     15198 MEMB     133      OSM      H17T     HAL2     0.900000E-01   1.00800           0
     15199 MEMB     133      OSM      C18S     CTL3    -0.270000       12.0110           0
     15200 MEMB     133      OSM      H18S     HAL3     0.900000E-01   1.00800           0
     15201 MEMB     133      OSM      H18T     HAL3     0.900000E-01   1.00800           0
     15202 MEMB     133      OSM      H18U     HAL3     0.900000E-01   1.00800           0
     15203 MEMB     133      OSM      C1F      C        0.550000       12.0110           0
     15204 MEMB     133      OSM      OF       O       -0.600000       15.9994           0
     15205 MEMB     133      OSM      C2F      CTL2    -0.700000E-01   12.0110           0
     15206 MEMB     133      OSM      H2F      HAL2     0.600000E-01   1.00800           0
     15207 MEMB     133      OSM      H2G      HAL2     0.600000E-01   1.00800           0
     15208 MEMB     133      OSM      C3F      CTL2    -0.180000       12.0110           0
     15209 MEMB     133      OSM      H3F      HAL2     0.900000E-01   1.00800           0
     15210 MEMB     133      OSM      H3G      HAL2     0.900000E-01   1.00800           0
     15211 MEMB     133      OSM      C4F      CTL2    -0.180000       12.0110           0
     15212 MEMB     133      OSM      H4F      HAL2     0.900000E-01   1.00800           0
     15213 MEMB     133      OSM      H4G      HAL2     0.900000E-01   1.00800           0
     15214 MEMB     133      OSM      C5F      CTL2    -0.180000       12.0110           0
     15215 MEMB     133      OSM      H5F      HAL2     0.900000E-01   1.00800           0
     15216 MEMB     133      OSM      H5G      HAL2     0.900000E-01   1.00800           0
     15217 MEMB     133      OSM      C6F      CTL2    -0.180000       12.0110           0
     15218 MEMB     133      OSM      H6F      HAL2     0.900000E-01   1.00800           0
     15219 MEMB     133      OSM      H6G      HAL2     0.900000E-01   1.00800           0
     15220 MEMB     133      OSM      C7F      CTL2    -0.180000       12.0110           0
     15221 MEMB     133      OSM      H7F      HAL2     0.900000E-01   1.00800           0
     15222 MEMB     133      OSM      H7G      HAL2     0.900000E-01   1.00800           0
     15223 MEMB     133      OSM      C8F      CTL2    -0.180000       12.0110           0
     15224 MEMB     133      OSM      H8F      HAL2     0.900000E-01   1.00800           0
     15225 MEMB     133      OSM      H8G      HAL2     0.900000E-01   1.00800           0
     15226 MEMB     133      OSM      C9F      CEL1    -0.150000       12.0110           0
     15227 MEMB     133      OSM      H9F      HEL1     0.150000       1.00800           0
     15228 MEMB     133      OSM      C10F     CEL1    -0.150000       12.0110           0
     15229 MEMB     133      OSM      H10F     HEL1     0.150000       1.00800           0
     15230 MEMB     133      OSM      C11F     CTL2    -0.180000       12.0110           0
     15231 MEMB     133      OSM      H11F     HAL2     0.900000E-01   1.00800           0
     15232 MEMB     133      OSM      H11G     HAL2     0.900000E-01   1.00800           0
     15233 MEMB     133      OSM      C12F     CTL2    -0.180000       12.0110           0
     15234 MEMB     133      OSM      H12F     HAL2     0.900000E-01   1.00800           0
     15235 MEMB     133      OSM      H12G     HAL2     0.900000E-01   1.00800           0
     15236 MEMB     133      OSM      C13F     CTL2    -0.180000       12.0110           0
     15237 MEMB     133      OSM      H13F     HAL2     0.900000E-01   1.00800           0
     15238 MEMB     133      OSM      H13G     HAL2     0.900000E-01   1.00800           0
     15239 MEMB     133      OSM      C14F     CTL2    -0.180000       12.0110           0
     15240 MEMB     133      OSM      H14F     HAL2     0.900000E-01   1.00800           0
     15241 MEMB     133      OSM      H14G     HAL2     0.900000E-01   1.00800           0
     15242 MEMB     133      OSM      C15F     CTL2    -0.180000       12.0110           0
     15243 MEMB     133      OSM      H15F     HAL2     0.900000E-01   1.00800           0
     15244 MEMB     133      OSM      H15G     HAL2     0.900000E-01   1.00800           0
     15245 MEMB     133      OSM      C16F     CTL2    -0.180000       12.0110           0
     15246 MEMB     133      OSM      H16F     HAL2     0.900000E-01   1.00800           0
     15247 MEMB     133      OSM      H16G     HAL2     0.900000E-01   1.00800           0
     15248 MEMB     133      OSM      C17F     CTL2    -0.180000       12.0110           0
     15249 MEMB     133      OSM      H17F     HAL2     0.900000E-01   1.00800           0
     15250 MEMB     133      OSM      H17G     HAL2     0.900000E-01   1.00800           0
     15251 MEMB     133      OSM      C18F     CTL3    -0.270000       12.0110           0
     15252 MEMB     133      OSM      H18F     HAL3     0.900000E-01   1.00800           0
     15253 MEMB     133      OSM      H18G     HAL3     0.900000E-01   1.00800           0
     15254 MEMB     133      OSM      H18H     HAL3     0.900000E-01   1.00800           0
     15255 MEMB     134      SLPC     N        NTL     -0.600000       14.0070           0
     15256 MEMB     134      SLPC     C13      CTL5    -0.350000       12.0110           0
     15257 MEMB     134      SLPC     H13A     HL       0.250000       1.00800           0
     15258 MEMB     134      SLPC     H13B     HL       0.250000       1.00800           0
     15259 MEMB     134      SLPC     H13C     HL       0.250000       1.00800           0
     15260 MEMB     134      SLPC     C14      CTL5    -0.350000       12.0110           0
     15261 MEMB     134      SLPC     H14A     HL       0.250000       1.00800           0
     15262 MEMB     134      SLPC     H14B     HL       0.250000       1.00800           0
     15263 MEMB     134      SLPC     H14C     HL       0.250000       1.00800           0
     15264 MEMB     134      SLPC     C15      CTL5    -0.350000       12.0110           0
     15265 MEMB     134      SLPC     H15A     HL       0.250000       1.00800           0
     15266 MEMB     134      SLPC     H15B     HL       0.250000       1.00800           0
     15267 MEMB     134      SLPC     H15C     HL       0.250000       1.00800           0
     15268 MEMB     134      SLPC     C12      CTL2    -0.100000       12.0110           0
     15269 MEMB     134      SLPC     H12A     HL       0.250000       1.00800           0
     15270 MEMB     134      SLPC     H12B     HL       0.250000       1.00800           0
     15271 MEMB     134      SLPC     C11      CTL2    -0.800000E-01   12.0110           0
     15272 MEMB     134      SLPC     H11A     HAL2     0.900000E-01   1.00800           0
     15273 MEMB     134      SLPC     H11B     HAL2     0.900000E-01   1.00800           0
     15274 MEMB     134      SLPC     P        PL        1.50000       30.9740           0
     15275 MEMB     134      SLPC     O13      O2L     -0.780000       15.9994           0
     15276 MEMB     134      SLPC     O14      O2L     -0.780000       15.9994           0
     15277 MEMB     134      SLPC     O12      OSLP    -0.570000       15.9994           0
     15278 MEMB     134      SLPC     O11      OSLP    -0.570000       15.9994           0
     15279 MEMB     134      SLPC     C1       CTL2    -0.800000E-01   12.0110           0
     15280 MEMB     134      SLPC     HA       HAL2     0.900000E-01   1.00800           0
     15281 MEMB     134      SLPC     HB       HAL2     0.900000E-01   1.00800           0
     15282 MEMB     134      SLPC     C2       CTL1     0.170000       12.0110           0
     15283 MEMB     134      SLPC     HS       HAL1     0.900000E-01   1.00800           0
     15284 MEMB     134      SLPC     O21      OSL     -0.490000       15.9994           0
     15285 MEMB     134      SLPC     C21      CL       0.900000       12.0110           0
     15286 MEMB     134      SLPC     O22      OBL     -0.630000       15.9994           0
     15287 MEMB     134      SLPC     C22      CTL2    -0.220000       12.0110           0
     15288 MEMB     134      SLPC     H2R      HAL2     0.900000E-01   1.00800           0
     15289 MEMB     134      SLPC     H2S      HAL2     0.900000E-01   1.00800           0
     15290 MEMB     134      SLPC     C3       CTL2     0.800000E-01   12.0110           0
     15291 MEMB     134      SLPC     HX       HAL2     0.900000E-01   1.00800           0
     15292 MEMB     134      SLPC     HY       HAL2     0.900000E-01   1.00800           0
     15293 MEMB     134      SLPC     O31      OSL     -0.490000       15.9994           0
     15294 MEMB     134      SLPC     C31      CL       0.900000       12.0110           0
     15295 MEMB     134      SLPC     O32      OBL     -0.630000       15.9994           0
     15296 MEMB     134      SLPC     C32      CTL2    -0.220000       12.0110           0
     15297 MEMB     134      SLPC     H2X      HAL2     0.900000E-01   1.00800           0
     15298 MEMB     134      SLPC     H2Y      HAL2     0.900000E-01   1.00800           0
     15299 MEMB     134      SLPC     C23      CTL2    -0.180000       12.0110           0
     15300 MEMB     134      SLPC     H3R      HAL2     0.900000E-01   1.00800           0
     15301 MEMB     134      SLPC     H3S      HAL2     0.900000E-01   1.00800           0
     15302 MEMB     134      SLPC     C24      CTL2    -0.180000       12.0110           0
     15303 MEMB     134      SLPC     H4R      HAL2     0.900000E-01   1.00800           0
     15304 MEMB     134      SLPC     H4S      HAL2     0.900000E-01   1.00800           0
     15305 MEMB     134      SLPC     C25      CTL2    -0.180000       12.0110           0
     15306 MEMB     134      SLPC     H5R      HAL2     0.900000E-01   1.00800           0
     15307 MEMB     134      SLPC     H5S      HAL2     0.900000E-01   1.00800           0
     15308 MEMB     134      SLPC     C26      CTL2    -0.180000       12.0110           0
     15309 MEMB     134      SLPC     H6R      HAL2     0.900000E-01   1.00800           0
     15310 MEMB     134      SLPC     H6S      HAL2     0.900000E-01   1.00800           0
     15311 MEMB     134      SLPC     C27      CTL2    -0.180000       12.0110           0
     15312 MEMB     134      SLPC     H7R      HAL2     0.900000E-01   1.00800           0
     15313 MEMB     134      SLPC     H7S      HAL2     0.900000E-01   1.00800           0
     15314 MEMB     134      SLPC     C28      CTL2    -0.180000       12.0110           0
     15315 MEMB     134      SLPC     H8R      HAL2     0.900000E-01   1.00800           0
     15316 MEMB     134      SLPC     H8S      HAL2     0.900000E-01   1.00800           0
     15317 MEMB     134      SLPC     C29      CEL1    -0.150000       12.0110           0
     15318 MEMB     134      SLPC     H9R      HEL1     0.150000       1.00800           0
     15319 MEMB     134      SLPC     C210     CEL1    -0.150000       12.0110           0
     15320 MEMB     134      SLPC     H10R     HEL1     0.150000       1.00800           0
     15321 MEMB     134      SLPC     C211     CTL2    -0.180000       12.0110           0
     15322 MEMB     134      SLPC     H11R     HAL2     0.900000E-01   1.00800           0
     15323 MEMB     134      SLPC     H11S     HAL2     0.900000E-01   1.00800           0
     15324 MEMB     134      SLPC     C212     CEL1    -0.150000       12.0110           0
     15325 MEMB     134      SLPC     H12R     HEL1     0.150000       1.00800           0
     15326 MEMB     134      SLPC     C213     CEL1    -0.150000       12.0110           0
     15327 MEMB     134      SLPC     H13R     HEL1     0.150000       1.00800           0
     15328 MEMB     134      SLPC     C214     CTL2    -0.180000       12.0110           0
     15329 MEMB     134      SLPC     H14R     HAL2     0.900000E-01   1.00800           0
     15330 MEMB     134      SLPC     H14S     HAL2     0.900000E-01   1.00800           0
     15331 MEMB     134      SLPC     C215     CTL2    -0.180000       12.0110           0
     15332 MEMB     134      SLPC     H15R     HAL2     0.900000E-01   1.00800           0
     15333 MEMB     134      SLPC     H15S     HAL2     0.900000E-01   1.00800           0
     15334 MEMB     134      SLPC     C216     CTL2    -0.180000       12.0110           0
     15335 MEMB     134      SLPC     H16R     HAL2     0.900000E-01   1.00800           0
     15336 MEMB     134      SLPC     H16S     HAL2     0.900000E-01   1.00800           0
     15337 MEMB     134      SLPC     C217     CTL2    -0.180000       12.0110           0
     15338 MEMB     134      SLPC     H17R     HAL2     0.900000E-01   1.00800           0
     15339 MEMB     134      SLPC     H17S     HAL2     0.900000E-01   1.00800           0
     15340 MEMB     134      SLPC     C218     CTL3    -0.270000       12.0110           0
     15341 MEMB     134      SLPC     H18R     HAL3     0.900000E-01   1.00800           0
     15342 MEMB     134      SLPC     H18S     HAL3     0.900000E-01   1.00800           0
     15343 MEMB     134      SLPC     H18T     HAL3     0.900000E-01   1.00800           0
     15344 MEMB     134      SLPC     C33      CTL2    -0.180000       12.0110           0
     15345 MEMB     134      SLPC     H3X      HAL2     0.900000E-01   1.00800           0
     15346 MEMB     134      SLPC     H3Y      HAL2     0.900000E-01   1.00800           0
     15347 MEMB     134      SLPC     C34      CTL2    -0.180000       12.0110           0
     15348 MEMB     134      SLPC     H4X      HAL2     0.900000E-01   1.00800           0
     15349 MEMB     134      SLPC     H4Y      HAL2     0.900000E-01   1.00800           0
     15350 MEMB     134      SLPC     C35      CTL2    -0.180000       12.0110           0
     15351 MEMB     134      SLPC     H5X      HAL2     0.900000E-01   1.00800           0
     15352 MEMB     134      SLPC     H5Y      HAL2     0.900000E-01   1.00800           0
     15353 MEMB     134      SLPC     C36      CTL2    -0.180000       12.0110           0
     15354 MEMB     134      SLPC     H6X      HAL2     0.900000E-01   1.00800           0
     15355 MEMB     134      SLPC     H6Y      HAL2     0.900000E-01   1.00800           0
     15356 MEMB     134      SLPC     C37      CTL2    -0.180000       12.0110           0
     15357 MEMB     134      SLPC     H7X      HAL2     0.900000E-01   1.00800           0
     15358 MEMB     134      SLPC     H7Y      HAL2     0.900000E-01   1.00800           0
     15359 MEMB     134      SLPC     C38      CTL2    -0.180000       12.0110           0
     15360 MEMB     134      SLPC     H8X      HAL2     0.900000E-01   1.00800           0
     15361 MEMB     134      SLPC     H8Y      HAL2     0.900000E-01   1.00800           0
     15362 MEMB     134      SLPC     C39      CTL2    -0.180000       12.0110           0
     15363 MEMB     134      SLPC     H9X      HAL2     0.900000E-01   1.00800           0
     15364 MEMB     134      SLPC     H9Y      HAL2     0.900000E-01   1.00800           0
     15365 MEMB     134      SLPC     C310     CTL2    -0.180000       12.0110           0
     15366 MEMB     134      SLPC     H10X     HAL2     0.900000E-01   1.00800           0
     15367 MEMB     134      SLPC     H10Y     HAL2     0.900000E-01   1.00800           0
     15368 MEMB     134      SLPC     C311     CTL2    -0.180000       12.0110           0
     15369 MEMB     134      SLPC     H11X     HAL2     0.900000E-01   1.00800           0
     15370 MEMB     134      SLPC     H11Y     HAL2     0.900000E-01   1.00800           0
     15371 MEMB     134      SLPC     C312     CTL2    -0.180000       12.0110           0
     15372 MEMB     134      SLPC     H12X     HAL2     0.900000E-01   1.00800           0
     15373 MEMB     134      SLPC     H12Y     HAL2     0.900000E-01   1.00800           0
     15374 MEMB     134      SLPC     C313     CTL2    -0.180000       12.0110           0
     15375 MEMB     134      SLPC     H13X     HAL2     0.900000E-01   1.00800           0
     15376 MEMB     134      SLPC     H13Y     HAL2     0.900000E-01   1.00800           0
     15377 MEMB     134      SLPC     C314     CTL2    -0.180000       12.0110           0
     15378 MEMB     134      SLPC     H14X     HAL2     0.900000E-01   1.00800           0
     15379 MEMB     134      SLPC     H14Y     HAL2     0.900000E-01   1.00800           0
     15380 MEMB     134      SLPC     C315     CTL2    -0.180000       12.0110           0
     15381 MEMB     134      SLPC     H15X     HAL2     0.900000E-01   1.00800           0
     15382 MEMB     134      SLPC     H15Y     HAL2     0.900000E-01   1.00800           0
     15383 MEMB     134      SLPC     C316     CTL2    -0.180000       12.0110           0
     15384 MEMB     134      SLPC     H16X     HAL2     0.900000E-01   1.00800           0
     15385 MEMB     134      SLPC     H16Y     HAL2     0.900000E-01   1.00800           0
     15386 MEMB     134      SLPC     C317     CTL2    -0.180000       12.0110           0
     15387 MEMB     134      SLPC     H17X     HAL2     0.900000E-01   1.00800           0
     15388 MEMB     134      SLPC     H17Y     HAL2     0.900000E-01   1.00800           0
     15389 MEMB     134      SLPC     C318     CTL3    -0.270000       12.0110           0
     15390 MEMB     134      SLPC     H18X     HAL3     0.900000E-01   1.00800           0
     15391 MEMB     134      SLPC     H18Y     HAL3     0.900000E-01   1.00800           0
     15392 MEMB     134      SLPC     H18Z     HAL3     0.900000E-01   1.00800           0
     15393 MEMB     135      OSM      N        NTL     -0.600000       14.0070           0
     15394 MEMB     135      OSM      C15      CTL5    -0.350000       12.0110           0
     15395 MEMB     135      OSM      H15A     HL       0.250000       1.00800           0
     15396 MEMB     135      OSM      H15B     HL       0.250000       1.00800           0
     15397 MEMB     135      OSM      H15C     HL       0.250000       1.00800           0
     15398 MEMB     135      OSM      C14      CTL5    -0.350000       12.0110           0
     15399 MEMB     135      OSM      H14A     HL       0.250000       1.00800           0
     15400 MEMB     135      OSM      H14B     HL       0.250000       1.00800           0
     15401 MEMB     135      OSM      H14C     HL       0.250000       1.00800           0
     15402 MEMB     135      OSM      C13      CTL5    -0.350000       12.0110           0
     15403 MEMB     135      OSM      H13A     HL       0.250000       1.00800           0
     15404 MEMB     135      OSM      H13B     HL       0.250000       1.00800           0
     15405 MEMB     135      OSM      H13C     HL       0.250000       1.00800           0
     15406 MEMB     135      OSM      C12      CTL2    -0.100000       12.0110           0
     15407 MEMB     135      OSM      H12A     HL       0.250000       1.00800           0
     15408 MEMB     135      OSM      H12B     HL       0.250000       1.00800           0
     15409 MEMB     135      OSM      C11      CTL2    -0.800000E-01   12.0110           0
     15410 MEMB     135      OSM      H11A     HAL2     0.900000E-01   1.00800           0
     15411 MEMB     135      OSM      H11B     HAL2     0.900000E-01   1.00800           0
     15412 MEMB     135      OSM      P        PL        1.50000       30.9740           0
     15413 MEMB     135      OSM      O13      O2L     -0.780000       15.9994           0
     15414 MEMB     135      OSM      O14      O2L     -0.780000       15.9994           0
     15415 MEMB     135      OSM      O11      OSLP    -0.570000       15.9994           0
     15416 MEMB     135      OSM      O12      OSLP    -0.570000       15.9994           0
     15417 MEMB     135      OSM      C1S      CTL2    -0.800000E-01   12.0110           0
     15418 MEMB     135      OSM      H1S      HAL2     0.900000E-01   1.00800           0
     15419 MEMB     135      OSM      H1T      HAL2     0.900000E-01   1.00800           0
     15420 MEMB     135      OSM      NF       NHL     -0.700000       14.0070           0
     15421 MEMB     135      OSM      HNF      H        0.350000       1.00800           0
     15422 MEMB     135      OSM      C2S      CTL1     0.300000       12.0110           0
     15423 MEMB     135      OSM      H2S      HAL1     0.500000E-01   1.00800           0
     15424 MEMB     135      OSM      C3S      CTO1     0.500000       12.0110           0
     15425 MEMB     135      OSM      H3S      HAL1    -0.110000       1.00800           0
     15426 MEMB     135      OSM      O3       OHL     -0.690000       15.9994           0
     15427 MEMB     135      OSM      HO3      HOL      0.300000       1.00800           0
     15428 MEMB     135      OSM      C4S      CEL3    -0.150000       12.0110           0
     15429 MEMB     135      OSM      H4S      HEL1     0.150000       1.00800           0
     15430 MEMB     135      OSM      C5S      CEL3    -0.150000       12.0110           0
     15431 MEMB     135      OSM      H5S      HEL1     0.150000       1.00800           0
     15432 MEMB     135      OSM      C6S      CTL2    -0.180000       12.0110           0
     15433 MEMB     135      OSM      H6S      HAL2     0.900000E-01   1.00800           0
     15434 MEMB     135      OSM      H6T      HAL2     0.900000E-01   1.00800           0
     15435 MEMB     135      OSM      C7S      CTL2    -0.180000       12.0110           0
     15436 MEMB     135      OSM      H7S      HAL2     0.900000E-01   1.00800           0
     15437 MEMB     135      OSM      H7T      HAL2     0.900000E-01   1.00800           0
     15438 MEMB     135      OSM      C8S      CTL2    -0.180000       12.0110           0
     15439 MEMB     135      OSM      H8S      HAL2     0.900000E-01   1.00800           0
     15440 MEMB     135      OSM      H8T      HAL2     0.900000E-01   1.00800           0
     15441 MEMB     135      OSM      C9S      CTL2    -0.180000       12.0110           0
     15442 MEMB     135      OSM      H9S      HAL2     0.900000E-01   1.00800           0
     15443 MEMB     135      OSM      H9T      HAL2     0.900000E-01   1.00800           0
     15444 MEMB     135      OSM      C10S     CTL2    -0.180000       12.0110           0
     15445 MEMB     135      OSM      H10S     HAL2     0.900000E-01   1.00800           0
     15446 MEMB     135      OSM      H10T     HAL2     0.900000E-01   1.00800           0
     15447 MEMB     135      OSM      C11S     CTL2    -0.180000       12.0110           0
     15448 MEMB     135      OSM      H11S     HAL2     0.900000E-01   1.00800           0
     15449 MEMB     135      OSM      H11T     HAL2     0.900000E-01   1.00800           0
     15450 MEMB     135      OSM      C12S     CTL2    -0.180000       12.0110           0
     15451 MEMB     135      OSM      H12S     HAL2     0.900000E-01   1.00800           0
     15452 MEMB     135      OSM      H12T     HAL2     0.900000E-01   1.00800           0
     15453 MEMB     135      OSM      C13S     CTL2    -0.180000       12.0110           0
     15454 MEMB     135      OSM      H13S     HAL2     0.900000E-01   1.00800           0
     15455 MEMB     135      OSM      H13T     HAL2     0.900000E-01   1.00800           0
     15456 MEMB     135      OSM      C14S     CTL2    -0.180000       12.0110           0
     15457 MEMB     135      OSM      H14S     HAL2     0.900000E-01   1.00800           0
     15458 MEMB     135      OSM      H14T     HAL2     0.900000E-01   1.00800           0
     15459 MEMB     135      OSM      C15S     CTL2    -0.180000       12.0110           0
     15460 MEMB     135      OSM      H15S     HAL2     0.900000E-01   1.00800           0
     15461 MEMB     135      OSM      H15T     HAL2     0.900000E-01   1.00800           0
     15462 MEMB     135      OSM      C16S     CTL2    -0.180000       12.0110           0
     15463 MEMB     135      OSM      H16S     HAL2     0.900000E-01   1.00800           0
     15464 MEMB     135      OSM      H16T     HAL2     0.900000E-01   1.00800           0
     15465 MEMB     135      OSM      C17S     CTL2    -0.180000       12.0110           0
     15466 MEMB     135      OSM      H17S     HAL2     0.900000E-01   1.00800           0
     15467 MEMB     135      OSM      H17T     HAL2     0.900000E-01   1.00800           0
     15468 MEMB     135      OSM      C18S     CTL3    -0.270000       12.0110           0
     15469 MEMB     135      OSM      H18S     HAL3     0.900000E-01   1.00800           0
     15470 MEMB     135      OSM      H18T     HAL3     0.900000E-01   1.00800           0
     15471 MEMB     135      OSM      H18U     HAL3     0.900000E-01   1.00800           0
     15472 MEMB     135      OSM      C1F      C        0.550000       12.0110           0
     15473 MEMB     135      OSM      OF       O       -0.600000       15.9994           0
     15474 MEMB     135      OSM      C2F      CTL2    -0.700000E-01   12.0110           0
     15475 MEMB     135      OSM      H2F      HAL2     0.600000E-01   1.00800           0
     15476 MEMB     135      OSM      H2G      HAL2     0.600000E-01   1.00800           0
     15477 MEMB     135      OSM      C3F      CTL2    -0.180000       12.0110           0
     15478 MEMB     135      OSM      H3F      HAL2     0.900000E-01   1.00800           0
     15479 MEMB     135      OSM      H3G      HAL2     0.900000E-01   1.00800           0
     15480 MEMB     135      OSM      C4F      CTL2    -0.180000       12.0110           0
     15481 MEMB     135      OSM      H4F      HAL2     0.900000E-01   1.00800           0
     15482 MEMB     135      OSM      H4G      HAL2     0.900000E-01   1.00800           0
     15483 MEMB     135      OSM      C5F      CTL2    -0.180000       12.0110           0
     15484 MEMB     135      OSM      H5F      HAL2     0.900000E-01   1.00800           0
     15485 MEMB     135      OSM      H5G      HAL2     0.900000E-01   1.00800           0
     15486 MEMB     135      OSM      C6F      CTL2    -0.180000       12.0110           0
     15487 MEMB     135      OSM      H6F      HAL2     0.900000E-01   1.00800           0
     15488 MEMB     135      OSM      H6G      HAL2     0.900000E-01   1.00800           0
     15489 MEMB     135      OSM      C7F      CTL2    -0.180000       12.0110           0
     15490 MEMB     135      OSM      H7F      HAL2     0.900000E-01   1.00800           0
     15491 MEMB     135      OSM      H7G      HAL2     0.900000E-01   1.00800           0
     15492 MEMB     135      OSM      C8F      CTL2    -0.180000       12.0110           0
     15493 MEMB     135      OSM      H8F      HAL2     0.900000E-01   1.00800           0
     15494 MEMB     135      OSM      H8G      HAL2     0.900000E-01   1.00800           0
     15495 MEMB     135      OSM      C9F      CEL1    -0.150000       12.0110           0
     15496 MEMB     135      OSM      H9F      HEL1     0.150000       1.00800           0
     15497 MEMB     135      OSM      C10F     CEL1    -0.150000       12.0110           0
     15498 MEMB     135      OSM      H10F     HEL1     0.150000       1.00800           0
     15499 MEMB     135      OSM      C11F     CTL2    -0.180000       12.0110           0
     15500 MEMB     135      OSM      H11F     HAL2     0.900000E-01   1.00800           0
     15501 MEMB     135      OSM      H11G     HAL2     0.900000E-01   1.00800           0
     15502 MEMB     135      OSM      C12F     CTL2    -0.180000       12.0110           0
     15503 MEMB     135      OSM      H12F     HAL2     0.900000E-01   1.00800           0
     15504 MEMB     135      OSM      H12G     HAL2     0.900000E-01   1.00800           0
     15505 MEMB     135      OSM      C13F     CTL2    -0.180000       12.0110           0
     15506 MEMB     135      OSM      H13F     HAL2     0.900000E-01   1.00800           0
     15507 MEMB     135      OSM      H13G     HAL2     0.900000E-01   1.00800           0
     15508 MEMB     135      OSM      C14F     CTL2    -0.180000       12.0110           0
     15509 MEMB     135      OSM      H14F     HAL2     0.900000E-01   1.00800           0
     15510 MEMB     135      OSM      H14G     HAL2     0.900000E-01   1.00800           0
     15511 MEMB     135      OSM      C15F     CTL2    -0.180000       12.0110           0
     15512 MEMB     135      OSM      H15F     HAL2     0.900000E-01   1.00800           0
     15513 MEMB     135      OSM      H15G     HAL2     0.900000E-01   1.00800           0
     15514 MEMB     135      OSM      C16F     CTL2    -0.180000       12.0110           0
     15515 MEMB     135      OSM      H16F     HAL2     0.900000E-01   1.00800           0
     15516 MEMB     135      OSM      H16G     HAL2     0.900000E-01   1.00800           0
     15517 MEMB     135      OSM      C17F     CTL2    -0.180000       12.0110           0
     15518 MEMB     135      OSM      H17F     HAL2     0.900000E-01   1.00800           0
     15519 MEMB     135      OSM      H17G     HAL2     0.900000E-01   1.00800           0
     15520 MEMB     135      OSM      C18F     CTL3    -0.270000       12.0110           0
     15521 MEMB     135      OSM      H18F     HAL3     0.900000E-01   1.00800           0
     15522 MEMB     135      OSM      H18G     HAL3     0.900000E-01   1.00800           0
     15523 MEMB     135      OSM      H18H     HAL3     0.900000E-01   1.00800           0
     15524 MEMB     136      SAPC     N        NTL     -0.600000       14.0070           0
     15525 MEMB     136      SAPC     C12      CTL2    -0.100000       12.0110           0
     15526 MEMB     136      SAPC     H12A     HL       0.250000       1.00800           0
     15527 MEMB     136      SAPC     H12B     HL       0.250000       1.00800           0
     15528 MEMB     136      SAPC     C13      CTL5    -0.350000       12.0110           0
     15529 MEMB     136      SAPC     H13A     HL       0.250000       1.00800           0
     15530 MEMB     136      SAPC     H13B     HL       0.250000       1.00800           0
     15531 MEMB     136      SAPC     H13C     HL       0.250000       1.00800           0
     15532 MEMB     136      SAPC     C14      CTL5    -0.350000       12.0110           0
     15533 MEMB     136      SAPC     H14A     HL       0.250000       1.00800           0
     15534 MEMB     136      SAPC     H14B     HL       0.250000       1.00800           0
     15535 MEMB     136      SAPC     H14C     HL       0.250000       1.00800           0
     15536 MEMB     136      SAPC     C15      CTL5    -0.350000       12.0110           0
     15537 MEMB     136      SAPC     H15A     HL       0.250000       1.00800           0
     15538 MEMB     136      SAPC     H15B     HL       0.250000       1.00800           0
     15539 MEMB     136      SAPC     H15C     HL       0.250000       1.00800           0
     15540 MEMB     136      SAPC     C11      CTL2    -0.800000E-01   12.0110           0
     15541 MEMB     136      SAPC     H11A     HAL2     0.900000E-01   1.00800           0
     15542 MEMB     136      SAPC     H11B     HAL2     0.900000E-01   1.00800           0
     15543 MEMB     136      SAPC     P        PL        1.50000       30.9740           0
     15544 MEMB     136      SAPC     O13      O2L     -0.780000       15.9994           0
     15545 MEMB     136      SAPC     O14      O2L     -0.780000       15.9994           0
     15546 MEMB     136      SAPC     O12      OSLP    -0.570000       15.9994           0
     15547 MEMB     136      SAPC     O11      OSLP    -0.570000       15.9994           0
     15548 MEMB     136      SAPC     C1       CTL2    -0.800000E-01   12.0110           0
     15549 MEMB     136      SAPC     HA       HAL2     0.900000E-01   1.00800           0
     15550 MEMB     136      SAPC     HB       HAL2     0.900000E-01   1.00800           0
     15551 MEMB     136      SAPC     C2       CTL1     0.170000       12.0110           0
     15552 MEMB     136      SAPC     HS       HAL1     0.900000E-01   1.00800           0
     15553 MEMB     136      SAPC     O21      OSL     -0.490000       15.9994           0
     15554 MEMB     136      SAPC     C21      CL       0.900000       12.0110           0
     15555 MEMB     136      SAPC     O22      OBL     -0.630000       15.9994           0
     15556 MEMB     136      SAPC     C22      CTL2    -0.220000       12.0110           0
     15557 MEMB     136      SAPC     H2R      HAL2     0.900000E-01   1.00800           0
     15558 MEMB     136      SAPC     H2S      HAL2     0.900000E-01   1.00800           0
     15559 MEMB     136      SAPC     C3       CTL2     0.800000E-01   12.0110           0
     15560 MEMB     136      SAPC     HX       HAL2     0.900000E-01   1.00800           0
     15561 MEMB     136      SAPC     HY       HAL2     0.900000E-01   1.00800           0
     15562 MEMB     136      SAPC     O31      OSL     -0.490000       15.9994           0
     15563 MEMB     136      SAPC     C31      CL       0.900000       12.0110           0
     15564 MEMB     136      SAPC     O32      OBL     -0.630000       15.9994           0
     15565 MEMB     136      SAPC     C32      CTL2    -0.220000       12.0110           0
     15566 MEMB     136      SAPC     H2X      HAL2     0.900000E-01   1.00800           0
     15567 MEMB     136      SAPC     H2Y      HAL2     0.900000E-01   1.00800           0
     15568 MEMB     136      SAPC     C23      CTL2    -0.180000       12.0110           0
     15569 MEMB     136      SAPC     H3R      HAL2     0.900000E-01   1.00800           0
     15570 MEMB     136      SAPC     H3S      HAL2     0.900000E-01   1.00800           0
     15571 MEMB     136      SAPC     C24      CTL2    -0.180000       12.0110           0
     15572 MEMB     136      SAPC     H4R      HAL2     0.900000E-01   1.00800           0
     15573 MEMB     136      SAPC     H4S      HAL2     0.900000E-01   1.00800           0
     15574 MEMB     136      SAPC     C25      CEL1    -0.150000       12.0110           0
     15575 MEMB     136      SAPC     H5R      HEL1     0.150000       1.00800           0
     15576 MEMB     136      SAPC     C26      CEL1    -0.150000       12.0110           0
     15577 MEMB     136      SAPC     H6R      HEL1     0.150000       1.00800           0
     15578 MEMB     136      SAPC     C27      CTL2    -0.180000       12.0110           0
     15579 MEMB     136      SAPC     H7R      HAL2     0.900000E-01   1.00800           0
     15580 MEMB     136      SAPC     H7S      HAL2     0.900000E-01   1.00800           0
     15581 MEMB     136      SAPC     C28      CEL1    -0.150000       12.0110           0
     15582 MEMB     136      SAPC     H8R      HEL1     0.150000       1.00800           0
     15583 MEMB     136      SAPC     C29      CEL1    -0.150000       12.0110           0
     15584 MEMB     136      SAPC     H9R      HEL1     0.150000       1.00800           0
     15585 MEMB     136      SAPC     C210     CTL2    -0.180000       12.0110           0
     15586 MEMB     136      SAPC     H10R     HAL2     0.900000E-01   1.00800           0
     15587 MEMB     136      SAPC     H10S     HAL2     0.900000E-01   1.00800           0
     15588 MEMB     136      SAPC     C211     CEL1    -0.150000       12.0110           0
     15589 MEMB     136      SAPC     H11R     HEL1     0.150000       1.00800           0
     15590 MEMB     136      SAPC     C212     CEL1    -0.150000       12.0110           0
     15591 MEMB     136      SAPC     H12R     HEL1     0.150000       1.00800           0
     15592 MEMB     136      SAPC     C213     CTL2    -0.180000       12.0110           0
     15593 MEMB     136      SAPC     H13R     HAL2     0.900000E-01   1.00800           0
     15594 MEMB     136      SAPC     H13S     HAL2     0.900000E-01   1.00800           0
     15595 MEMB     136      SAPC     C214     CEL1    -0.150000       12.0110           0
     15596 MEMB     136      SAPC     H14R     HEL1     0.150000       1.00800           0
     15597 MEMB     136      SAPC     C215     CEL1    -0.150000       12.0110           0
     15598 MEMB     136      SAPC     H15R     HEL1     0.150000       1.00800           0
     15599 MEMB     136      SAPC     C216     CTL2    -0.180000       12.0110           0
     15600 MEMB     136      SAPC     H16R     HAL2     0.900000E-01   1.00800           0
     15601 MEMB     136      SAPC     H16S     HAL2     0.900000E-01   1.00800           0
     15602 MEMB     136      SAPC     C217     CTL2    -0.180000       12.0110           0
     15603 MEMB     136      SAPC     H17R     HAL2     0.900000E-01   1.00800           0
     15604 MEMB     136      SAPC     H17S     HAL2     0.900000E-01   1.00800           0
     15605 MEMB     136      SAPC     C218     CTL2    -0.270000       12.0110           0
     15606 MEMB     136      SAPC     H18R     HAL2     0.900000E-01   1.00800           0
     15607 MEMB     136      SAPC     H18S     HAL2     0.900000E-01   1.00800           0
     15608 MEMB     136      SAPC     C219     CTL2    -0.180000       12.0110           0
     15609 MEMB     136      SAPC     H19R     HAL2     0.900000E-01   1.00800           0
     15610 MEMB     136      SAPC     H19S     HAL2     0.900000E-01   1.00800           0
     15611 MEMB     136      SAPC     C220     CTL3    -0.180000       12.0110           0
     15612 MEMB     136      SAPC     H20R     HAL3     0.900000E-01   1.00800           0
     15613 MEMB     136      SAPC     H20S     HAL3     0.900000E-01   1.00800           0
     15614 MEMB     136      SAPC     H20T     HAL3     0.900000E-01   1.00800           0
     15615 MEMB     136      SAPC     C33      CTL2    -0.180000       12.0110           0
     15616 MEMB     136      SAPC     H3X      HAL2     0.900000E-01   1.00800           0
     15617 MEMB     136      SAPC     H3Y      HAL2     0.900000E-01   1.00800           0
     15618 MEMB     136      SAPC     C34      CTL2    -0.180000       12.0110           0
     15619 MEMB     136      SAPC     H4X      HAL2     0.900000E-01   1.00800           0
     15620 MEMB     136      SAPC     H4Y      HAL2     0.900000E-01   1.00800           0
     15621 MEMB     136      SAPC     C35      CTL2    -0.180000       12.0110           0
     15622 MEMB     136      SAPC     H5X      HAL2     0.900000E-01   1.00800           0
     15623 MEMB     136      SAPC     H5Y      HAL2     0.900000E-01   1.00800           0
     15624 MEMB     136      SAPC     C36      CTL2    -0.180000       12.0110           0
     15625 MEMB     136      SAPC     H6X      HAL2     0.900000E-01   1.00800           0
     15626 MEMB     136      SAPC     H6Y      HAL2     0.900000E-01   1.00800           0
     15627 MEMB     136      SAPC     C37      CTL2    -0.180000       12.0110           0
     15628 MEMB     136      SAPC     H7X      HAL2     0.900000E-01   1.00800           0
     15629 MEMB     136      SAPC     H7Y      HAL2     0.900000E-01   1.00800           0
     15630 MEMB     136      SAPC     C38      CTL2    -0.180000       12.0110           0
     15631 MEMB     136      SAPC     H8X      HAL2     0.900000E-01   1.00800           0
     15632 MEMB     136      SAPC     H8Y      HAL2     0.900000E-01   1.00800           0
     15633 MEMB     136      SAPC     C39      CTL2    -0.180000       12.0110           0
     15634 MEMB     136      SAPC     H9X      HAL2     0.900000E-01   1.00800           0
     15635 MEMB     136      SAPC     H9Y      HAL2     0.900000E-01   1.00800           0
     15636 MEMB     136      SAPC     C310     CTL2    -0.180000       12.0110           0
     15637 MEMB     136      SAPC     H10X     HAL2     0.900000E-01   1.00800           0
     15638 MEMB     136      SAPC     H10Y     HAL2     0.900000E-01   1.00800           0
     15639 MEMB     136      SAPC     C311     CTL2    -0.180000       12.0110           0
     15640 MEMB     136      SAPC     H11X     HAL2     0.900000E-01   1.00800           0
     15641 MEMB     136      SAPC     H11Y     HAL2     0.900000E-01   1.00800           0
     15642 MEMB     136      SAPC     C312     CTL2    -0.180000       12.0110           0
     15643 MEMB     136      SAPC     H12X     HAL2     0.900000E-01   1.00800           0
     15644 MEMB     136      SAPC     H12Y     HAL2     0.900000E-01   1.00800           0
     15645 MEMB     136      SAPC     C313     CTL2    -0.180000       12.0110           0
     15646 MEMB     136      SAPC     H13X     HAL2     0.900000E-01   1.00800           0
     15647 MEMB     136      SAPC     H13Y     HAL2     0.900000E-01   1.00800           0
     15648 MEMB     136      SAPC     C314     CTL2    -0.180000       12.0110           0
     15649 MEMB     136      SAPC     H14X     HAL2     0.900000E-01   1.00800           0
     15650 MEMB     136      SAPC     H14Y     HAL2     0.900000E-01   1.00800           0
     15651 MEMB     136      SAPC     C315     CTL2    -0.180000       12.0110           0
     15652 MEMB     136      SAPC     H15X     HAL2     0.900000E-01   1.00800           0
     15653 MEMB     136      SAPC     H15Y     HAL2     0.900000E-01   1.00800           0
     15654 MEMB     136      SAPC     C316     CTL2    -0.180000       12.0110           0
     15655 MEMB     136      SAPC     H16X     HAL2     0.900000E-01   1.00800           0
     15656 MEMB     136      SAPC     H16Y     HAL2     0.900000E-01   1.00800           0
     15657 MEMB     136      SAPC     C317     CTL2    -0.180000       12.0110           0
     15658 MEMB     136      SAPC     H17X     HAL2     0.900000E-01   1.00800           0
     15659 MEMB     136      SAPC     H17Y     HAL2     0.900000E-01   1.00800           0
     15660 MEMB     136      SAPC     C318     CTL3    -0.270000       12.0110           0
     15661 MEMB     136      SAPC     H18X     HAL3     0.900000E-01   1.00800           0
     15662 MEMB     136      SAPC     H18Y     HAL3     0.900000E-01   1.00800           0
     15663 MEMB     136      SAPC     H18Z     HAL3     0.900000E-01   1.00800           0
     15664 MEMB     137      SAPS     N        NH3L    -0.300000       14.0070           0
     15665 MEMB     137      SAPS     HN1      HCL      0.330000       1.00800           0
     15666 MEMB     137      SAPS     HN2      HCL      0.330000       1.00800           0
     15667 MEMB     137      SAPS     HN3      HCL      0.330000       1.00800           0
     15668 MEMB     137      SAPS     C12      CTL1     0.210000       12.0110           0
     15669 MEMB     137      SAPS     H12A     HBL      0.100000       1.00800           0
     15670 MEMB     137      SAPS     C13      CCL      0.340000       12.0110           0
     15671 MEMB     137      SAPS     O13A     OCL     -0.670000       15.9994           0
     15672 MEMB     137      SAPS     O13B     OCL     -0.670000       15.9994           0
     15673 MEMB     137      SAPS     C11      CTL2    -0.800000E-01   12.0110           0
     15674 MEMB     137      SAPS     H11A     HAL2     0.900000E-01   1.00800           0
     15675 MEMB     137      SAPS     H11B     HAL2     0.900000E-01   1.00800           0
     15676 MEMB     137      SAPS     P        PL        1.50000       30.9740           0
     15677 MEMB     137      SAPS     O13      O2L     -0.780000       15.9994           0
     15678 MEMB     137      SAPS     O14      O2L     -0.780000       15.9994           0
     15679 MEMB     137      SAPS     O12      OSLP    -0.570000       15.9994           0
     15680 MEMB     137      SAPS     O11      OSLP    -0.570000       15.9994           0
     15681 MEMB     137      SAPS     C1       CTL2    -0.800000E-01   12.0110           0
     15682 MEMB     137      SAPS     HA       HAL2     0.900000E-01   1.00800           0
     15683 MEMB     137      SAPS     HB       HAL2     0.900000E-01   1.00800           0
     15684 MEMB     137      SAPS     C2       CTL1     0.170000       12.0110           0
     15685 MEMB     137      SAPS     HS       HAL1     0.900000E-01   1.00800           0
     15686 MEMB     137      SAPS     O21      OSL     -0.490000       15.9994           0
     15687 MEMB     137      SAPS     C21      CL       0.900000       12.0110           0
     15688 MEMB     137      SAPS     O22      OBL     -0.630000       15.9994           0
     15689 MEMB     137      SAPS     C22      CTL2    -0.220000       12.0110           0
     15690 MEMB     137      SAPS     H2R      HAL2     0.900000E-01   1.00800           0
     15691 MEMB     137      SAPS     H2S      HAL2     0.900000E-01   1.00800           0
     15692 MEMB     137      SAPS     C3       CTL2     0.800000E-01   12.0110           0
     15693 MEMB     137      SAPS     HX       HAL2     0.900000E-01   1.00800           0
     15694 MEMB     137      SAPS     HY       HAL2     0.900000E-01   1.00800           0
     15695 MEMB     137      SAPS     O31      OSL     -0.490000       15.9994           0
     15696 MEMB     137      SAPS     C31      CL       0.900000       12.0110           0
     15697 MEMB     137      SAPS     O32      OBL     -0.630000       15.9994           0
     15698 MEMB     137      SAPS     C32      CTL2    -0.220000       12.0110           0
     15699 MEMB     137      SAPS     H2X      HAL2     0.900000E-01   1.00800           0
     15700 MEMB     137      SAPS     H2Y      HAL2     0.900000E-01   1.00800           0
     15701 MEMB     137      SAPS     C23      CTL2    -0.180000       12.0110           0
     15702 MEMB     137      SAPS     H3R      HAL2     0.900000E-01   1.00800           0
     15703 MEMB     137      SAPS     H3S      HAL2     0.900000E-01   1.00800           0
     15704 MEMB     137      SAPS     C24      CTL2    -0.180000       12.0110           0
     15705 MEMB     137      SAPS     H4R      HAL2     0.900000E-01   1.00800           0
     15706 MEMB     137      SAPS     H4S      HAL2     0.900000E-01   1.00800           0
     15707 MEMB     137      SAPS     C25      CEL1    -0.150000       12.0110           0
     15708 MEMB     137      SAPS     H5R      HEL1     0.150000       1.00800           0
     15709 MEMB     137      SAPS     C26      CEL1    -0.150000       12.0110           0
     15710 MEMB     137      SAPS     H6R      HEL1     0.150000       1.00800           0
     15711 MEMB     137      SAPS     C27      CTL2    -0.180000       12.0110           0
     15712 MEMB     137      SAPS     H7R      HAL2     0.900000E-01   1.00800           0
     15713 MEMB     137      SAPS     H7S      HAL2     0.900000E-01   1.00800           0
     15714 MEMB     137      SAPS     C28      CEL1    -0.150000       12.0110           0
     15715 MEMB     137      SAPS     H8R      HEL1     0.150000       1.00800           0
     15716 MEMB     137      SAPS     C29      CEL1    -0.150000       12.0110           0
     15717 MEMB     137      SAPS     H9R      HEL1     0.150000       1.00800           0
     15718 MEMB     137      SAPS     C210     CTL2    -0.180000       12.0110           0
     15719 MEMB     137      SAPS     H10R     HAL2     0.900000E-01   1.00800           0
     15720 MEMB     137      SAPS     H10S     HAL2     0.900000E-01   1.00800           0
     15721 MEMB     137      SAPS     C211     CEL1    -0.150000       12.0110           0
     15722 MEMB     137      SAPS     H11R     HEL1     0.150000       1.00800           0
     15723 MEMB     137      SAPS     C212     CEL1    -0.150000       12.0110           0
     15724 MEMB     137      SAPS     H12R     HEL1     0.150000       1.00800           0
     15725 MEMB     137      SAPS     C213     CTL2    -0.180000       12.0110           0
     15726 MEMB     137      SAPS     H13R     HAL2     0.900000E-01   1.00800           0
     15727 MEMB     137      SAPS     H13S     HAL2     0.900000E-01   1.00800           0
     15728 MEMB     137      SAPS     C214     CEL1    -0.150000       12.0110           0
     15729 MEMB     137      SAPS     H14R     HEL1     0.150000       1.00800           0
     15730 MEMB     137      SAPS     C215     CEL1    -0.150000       12.0110           0
     15731 MEMB     137      SAPS     H15R     HEL1     0.150000       1.00800           0
     15732 MEMB     137      SAPS     C216     CTL2    -0.180000       12.0110           0
     15733 MEMB     137      SAPS     H16R     HAL2     0.900000E-01   1.00800           0
     15734 MEMB     137      SAPS     H16S     HAL2     0.900000E-01   1.00800           0
     15735 MEMB     137      SAPS     C217     CTL2    -0.180000       12.0110           0
     15736 MEMB     137      SAPS     H17R     HAL2     0.900000E-01   1.00800           0
     15737 MEMB     137      SAPS     H17S     HAL2     0.900000E-01   1.00800           0
     15738 MEMB     137      SAPS     C218     CTL2    -0.180000       12.0110           0
     15739 MEMB     137      SAPS     H18R     HAL2     0.900000E-01   1.00800           0
     15740 MEMB     137      SAPS     H18S     HAL2     0.900000E-01   1.00800           0
     15741 MEMB     137      SAPS     C219     CTL2    -0.180000       12.0110           0
     15742 MEMB     137      SAPS     H19R     HAL2     0.900000E-01   1.00800           0
     15743 MEMB     137      SAPS     H19S     HAL2     0.900000E-01   1.00800           0
     15744 MEMB     137      SAPS     C220     CTL3    -0.270000       12.0110           0
     15745 MEMB     137      SAPS     H20R     HAL3     0.900000E-01   1.00800           0
     15746 MEMB     137      SAPS     H20S     HAL3     0.900000E-01   1.00800           0
     15747 MEMB     137      SAPS     H20T     HAL3     0.900000E-01   1.00800           0
     15748 MEMB     137      SAPS     C33      CTL2    -0.180000       12.0110           0
     15749 MEMB     137      SAPS     H3X      HAL2     0.900000E-01   1.00800           0
     15750 MEMB     137      SAPS     H3Y      HAL2     0.900000E-01   1.00800           0
     15751 MEMB     137      SAPS     C34      CTL2    -0.180000       12.0110           0
     15752 MEMB     137      SAPS     H4X      HAL2     0.900000E-01   1.00800           0
     15753 MEMB     137      SAPS     H4Y      HAL2     0.900000E-01   1.00800           0
     15754 MEMB     137      SAPS     C35      CTL2    -0.180000       12.0110           0
     15755 MEMB     137      SAPS     H5X      HAL2     0.900000E-01   1.00800           0
     15756 MEMB     137      SAPS     H5Y      HAL2     0.900000E-01   1.00800           0
     15757 MEMB     137      SAPS     C36      CTL2    -0.180000       12.0110           0
     15758 MEMB     137      SAPS     H6X      HAL2     0.900000E-01   1.00800           0
     15759 MEMB     137      SAPS     H6Y      HAL2     0.900000E-01   1.00800           0
     15760 MEMB     137      SAPS     C37      CTL2    -0.180000       12.0110           0
     15761 MEMB     137      SAPS     H7X      HAL2     0.900000E-01   1.00800           0
     15762 MEMB     137      SAPS     H7Y      HAL2     0.900000E-01   1.00800           0
     15763 MEMB     137      SAPS     C38      CTL2    -0.180000       12.0110           0
     15764 MEMB     137      SAPS     H8X      HAL2     0.900000E-01   1.00800           0
     15765 MEMB     137      SAPS     H8Y      HAL2     0.900000E-01   1.00800           0
     15766 MEMB     137      SAPS     C39      CTL2    -0.180000       12.0110           0
     15767 MEMB     137      SAPS     H9X      HAL2     0.900000E-01   1.00800           0
     15768 MEMB     137      SAPS     H9Y      HAL2     0.900000E-01   1.00800           0
     15769 MEMB     137      SAPS     C310     CTL2    -0.180000       12.0110           0
     15770 MEMB     137      SAPS     H10X     HAL2     0.900000E-01   1.00800           0
     15771 MEMB     137      SAPS     H10Y     HAL2     0.900000E-01   1.00800           0
     15772 MEMB     137      SAPS     C311     CTL2    -0.180000       12.0110           0
     15773 MEMB     137      SAPS     H11X     HAL2     0.900000E-01   1.00800           0
     15774 MEMB     137      SAPS     H11Y     HAL2     0.900000E-01   1.00800           0
     15775 MEMB     137      SAPS     C312     CTL2    -0.180000       12.0110           0
     15776 MEMB     137      SAPS     H12X     HAL2     0.900000E-01   1.00800           0
     15777 MEMB     137      SAPS     H12Y     HAL2     0.900000E-01   1.00800           0
     15778 MEMB     137      SAPS     C313     CTL2    -0.180000       12.0110           0
     15779 MEMB     137      SAPS     H13X     HAL2     0.900000E-01   1.00800           0
     15780 MEMB     137      SAPS     H13Y     HAL2     0.900000E-01   1.00800           0
     15781 MEMB     137      SAPS     C314     CTL2    -0.180000       12.0110           0
     15782 MEMB     137      SAPS     H14X     HAL2     0.900000E-01   1.00800           0
     15783 MEMB     137      SAPS     H14Y     HAL2     0.900000E-01   1.00800           0
     15784 MEMB     137      SAPS     C315     CTL2    -0.180000       12.0110           0
     15785 MEMB     137      SAPS     H15X     HAL2     0.900000E-01   1.00800           0
     15786 MEMB     137      SAPS     H15Y     HAL2     0.900000E-01   1.00800           0
     15787 MEMB     137      SAPS     C316     CTL2    -0.180000       12.0110           0
     15788 MEMB     137      SAPS     H16X     HAL2     0.900000E-01   1.00800           0
     15789 MEMB     137      SAPS     H16Y     HAL2     0.900000E-01   1.00800           0
     15790 MEMB     137      SAPS     C317     CTL2    -0.180000       12.0110           0
     15791 MEMB     137      SAPS     H17X     HAL2     0.900000E-01   1.00800           0
     15792 MEMB     137      SAPS     H17Y     HAL2     0.900000E-01   1.00800           0
     15793 MEMB     137      SAPS     C318     CTL3    -0.270000       12.0110           0
     15794 MEMB     137      SAPS     H18X     HAL3     0.900000E-01   1.00800           0
     15795 MEMB     137      SAPS     H18Y     HAL3     0.900000E-01   1.00800           0
     15796 MEMB     137      SAPS     H18Z     HAL3     0.900000E-01   1.00800           0
     15797 MEMB     138      CHL1     C3       CRL1     0.140000       12.0110           0
     15798 MEMB     138      CHL1     H3       HGA1     0.900000E-01   1.00800           0
     15799 MEMB     138      CHL1     O3       OHL     -0.660000       15.9994           0
     15800 MEMB     138      CHL1     H3'      HOL      0.430000       1.00800           0
     15801 MEMB     138      CHL1     C4       CRL2    -0.180000       12.0110           0
     15802 MEMB     138      CHL1     H4A      HGA2     0.900000E-01   1.00800           0
     15803 MEMB     138      CHL1     H4B      HGA2     0.900000E-01   1.00800           0
     15804 MEMB     138      CHL1     C5       CEL1      0.00000       12.0110           0
     15805 MEMB     138      CHL1     C6       CEL1    -0.150000       12.0110           0
     15806 MEMB     138      CHL1     H6       HEL1     0.150000       1.00800           0
     15807 MEMB     138      CHL1     C7       CRL2    -0.180000       12.0110           0
     15808 MEMB     138      CHL1     H7A      HGA2     0.900000E-01   1.00800           0
     15809 MEMB     138      CHL1     H7B      HGA2     0.900000E-01   1.00800           0
     15810 MEMB     138      CHL1     C8       CRL1    -0.900000E-01   12.0110           0
     15811 MEMB     138      CHL1     H8       HGA1     0.900000E-01   1.00800           0
     15812 MEMB     138      CHL1     C14      CRL1    -0.900000E-01   12.0110           0
     15813 MEMB     138      CHL1     H14      HGA1     0.900000E-01   1.00800           0
     15814 MEMB     138      CHL1     C15      CRL2    -0.180000       12.0110           0
     15815 MEMB     138      CHL1     H15A     HGA2     0.900000E-01   1.00800           0
     15816 MEMB     138      CHL1     H15B     HGA2     0.900000E-01   1.00800           0
     15817 MEMB     138      CHL1     C16      CRL2    -0.180000       12.0110           0
     15818 MEMB     138      CHL1     H16A     HGA2     0.900000E-01   1.00800           0
     15819 MEMB     138      CHL1     H16B     HGA2     0.900000E-01   1.00800           0
     15820 MEMB     138      CHL1     C17      CRL1    -0.900000E-01   12.0110           0
     15821 MEMB     138      CHL1     H17      HGA1     0.900000E-01   1.00800           0
     15822 MEMB     138      CHL1     C13      CRL1      0.00000       12.0110           0
     15823 MEMB     138      CHL1     C18      CTL3    -0.270000       12.0110           0
     15824 MEMB     138      CHL1     H18A     HAL3     0.900000E-01   1.00800           0
     15825 MEMB     138      CHL1     H18B     HAL3     0.900000E-01   1.00800           0
     15826 MEMB     138      CHL1     H18C     HAL3     0.900000E-01   1.00800           0
     15827 MEMB     138      CHL1     C12      CRL2    -0.180000       12.0110           0
     15828 MEMB     138      CHL1     H12A     HGA2     0.900000E-01   1.00800           0
     15829 MEMB     138      CHL1     H12B     HGA2     0.900000E-01   1.00800           0
     15830 MEMB     138      CHL1     C11      CRL2    -0.180000       12.0110           0
     15831 MEMB     138      CHL1     H11A     HGA2     0.900000E-01   1.00800           0
     15832 MEMB     138      CHL1     H11B     HGA2     0.900000E-01   1.00800           0
     15833 MEMB     138      CHL1     C9       CRL1    -0.900000E-01   12.0110           0
     15834 MEMB     138      CHL1     H9       HGA1     0.900000E-01   1.00800           0
     15835 MEMB     138      CHL1     C10      CRL1      0.00000       12.0110           0
     15836 MEMB     138      CHL1     C19      CTL3    -0.270000       12.0110           0
     15837 MEMB     138      CHL1     H19A     HAL3     0.900000E-01   1.00800           0
     15838 MEMB     138      CHL1     H19B     HAL3     0.900000E-01   1.00800           0
     15839 MEMB     138      CHL1     H19C     HAL3     0.900000E-01   1.00800           0
     15840 MEMB     138      CHL1     C1       CRL2    -0.180000       12.0110           0
     15841 MEMB     138      CHL1     H1A      HGA2     0.900000E-01   1.00800           0
     15842 MEMB     138      CHL1     H1B      HGA2     0.900000E-01   1.00800           0
     15843 MEMB     138      CHL1     C2       CRL2    -0.180000       12.0110           0
     15844 MEMB     138      CHL1     H2A      HGA2     0.900000E-01   1.00800           0
     15845 MEMB     138      CHL1     H2B      HGA2     0.900000E-01   1.00800           0
     15846 MEMB     138      CHL1     C20      CTL1    -0.900000E-01   12.0110           0
     15847 MEMB     138      CHL1     H20      HAL1     0.900000E-01   1.00800           0
     15848 MEMB     138      CHL1     C21      CTL3    -0.270000       12.0110           0
     15849 MEMB     138      CHL1     H21A     HAL3     0.900000E-01   1.00800           0
     15850 MEMB     138      CHL1     H21B     HAL3     0.900000E-01   1.00800           0
     15851 MEMB     138      CHL1     H21C     HAL3     0.900000E-01   1.00800           0
     15852 MEMB     138      CHL1     C22      CTL2    -0.180000       12.0110           0
     15853 MEMB     138      CHL1     H22A     HAL2     0.900000E-01   1.00800           0
     15854 MEMB     138      CHL1     H22B     HAL2     0.900000E-01   1.00800           0
     15855 MEMB     138      CHL1     C23      CTL2    -0.180000       12.0110           0
     15856 MEMB     138      CHL1     H23A     HAL2     0.900000E-01   1.00800           0
     15857 MEMB     138      CHL1     H23B     HAL2     0.900000E-01   1.00800           0
     15858 MEMB     138      CHL1     C24      CTL2    -0.180000       12.0110           0
     15859 MEMB     138      CHL1     H24A     HAL2     0.900000E-01   1.00800           0
     15860 MEMB     138      CHL1     H24B     HAL2     0.900000E-01   1.00800           0
     15861 MEMB     138      CHL1     C25      CTL1    -0.900000E-01   12.0110           0
     15862 MEMB     138      CHL1     H25      HAL1     0.900000E-01   1.00800           0
     15863 MEMB     138      CHL1     C26      CTL3    -0.270000       12.0110           0
     15864 MEMB     138      CHL1     H26A     HAL3     0.900000E-01   1.00800           0
     15865 MEMB     138      CHL1     H26B     HAL3     0.900000E-01   1.00800           0
     15866 MEMB     138      CHL1     H26C     HAL3     0.900000E-01   1.00800           0
     15867 MEMB     138      CHL1     C27      CTL3    -0.270000       12.0110           0
     15868 MEMB     138      CHL1     H27A     HAL3     0.900000E-01   1.00800           0
     15869 MEMB     138      CHL1     H27B     HAL3     0.900000E-01   1.00800           0
     15870 MEMB     138      CHL1     H27C     HAL3     0.900000E-01   1.00800           0
     15871 MEMB     139      SOPE     N        NH3L    -0.300000       14.0070           0
     15872 MEMB     139      SOPE     HN1      HCL      0.330000       1.00800           0
     15873 MEMB     139      SOPE     HN2      HCL      0.330000       1.00800           0
     15874 MEMB     139      SOPE     HN3      HCL      0.330000       1.00800           0
     15875 MEMB     139      SOPE     C12      CTL2     0.130000       12.0110           0
     15876 MEMB     139      SOPE     H12A     HAL2     0.900000E-01   1.00800           0
     15877 MEMB     139      SOPE     H12B     HAL2     0.900000E-01   1.00800           0
     15878 MEMB     139      SOPE     C11      CTL2    -0.800000E-01   12.0110           0
     15879 MEMB     139      SOPE     H11A     HAL2     0.900000E-01   1.00800           0
     15880 MEMB     139      SOPE     H11B     HAL2     0.900000E-01   1.00800           0
     15881 MEMB     139      SOPE     P        PL        1.50000       30.9740           0
     15882 MEMB     139      SOPE     O13      O2L     -0.780000       15.9994           0
     15883 MEMB     139      SOPE     O14      O2L     -0.780000       15.9994           0
     15884 MEMB     139      SOPE     O12      OSLP    -0.570000       15.9994           0
     15885 MEMB     139      SOPE     O11      OSLP    -0.570000       15.9994           0
     15886 MEMB     139      SOPE     C1       CTL2    -0.800000E-01   12.0110           0
     15887 MEMB     139      SOPE     HA       HAL2     0.900000E-01   1.00800           0
     15888 MEMB     139      SOPE     HB       HAL2     0.900000E-01   1.00800           0
     15889 MEMB     139      SOPE     C2       CTL1     0.170000       12.0110           0
     15890 MEMB     139      SOPE     HS       HAL1     0.900000E-01   1.00800           0
     15891 MEMB     139      SOPE     O21      OSL     -0.490000       15.9994           0
     15892 MEMB     139      SOPE     C21      CL       0.900000       12.0110           0
     15893 MEMB     139      SOPE     O22      OBL     -0.630000       15.9994           0
     15894 MEMB     139      SOPE     C22      CTL2    -0.220000       12.0110           0
     15895 MEMB     139      SOPE     H2R      HAL2     0.900000E-01   1.00800           0
     15896 MEMB     139      SOPE     H2S      HAL2     0.900000E-01   1.00800           0
     15897 MEMB     139      SOPE     C3       CTL2     0.800000E-01   12.0110           0
     15898 MEMB     139      SOPE     HX       HAL2     0.900000E-01   1.00800           0
     15899 MEMB     139      SOPE     HY       HAL2     0.900000E-01   1.00800           0
     15900 MEMB     139      SOPE     O31      OSL     -0.490000       15.9994           0
     15901 MEMB     139      SOPE     C31      CL       0.900000       12.0110           0
     15902 MEMB     139      SOPE     O32      OBL     -0.630000       15.9994           0
     15903 MEMB     139      SOPE     C32      CTL2    -0.220000       12.0110           0
     15904 MEMB     139      SOPE     H2X      HAL2     0.900000E-01   1.00800           0
     15905 MEMB     139      SOPE     H2Y      HAL2     0.900000E-01   1.00800           0
     15906 MEMB     139      SOPE     C23      CTL2    -0.180000       12.0110           0
     15907 MEMB     139      SOPE     H3R      HAL2     0.900000E-01   1.00800           0
     15908 MEMB     139      SOPE     H3S      HAL2     0.900000E-01   1.00800           0
     15909 MEMB     139      SOPE     C24      CTL2    -0.180000       12.0110           0
     15910 MEMB     139      SOPE     H4R      HAL2     0.900000E-01   1.00800           0
     15911 MEMB     139      SOPE     H4S      HAL2     0.900000E-01   1.00800           0
     15912 MEMB     139      SOPE     C25      CTL2    -0.180000       12.0110           0
     15913 MEMB     139      SOPE     H5R      HAL2     0.900000E-01   1.00800           0
     15914 MEMB     139      SOPE     H5S      HAL2     0.900000E-01   1.00800           0
     15915 MEMB     139      SOPE     C26      CTL2    -0.180000       12.0110           0
     15916 MEMB     139      SOPE     H6R      HAL2     0.900000E-01   1.00800           0
     15917 MEMB     139      SOPE     H6S      HAL2     0.900000E-01   1.00800           0
     15918 MEMB     139      SOPE     C27      CTL2    -0.180000       12.0110           0
     15919 MEMB     139      SOPE     H7R      HAL2     0.900000E-01   1.00800           0
     15920 MEMB     139      SOPE     H7S      HAL2     0.900000E-01   1.00800           0
     15921 MEMB     139      SOPE     C28      CTL2    -0.180000       12.0110           0
     15922 MEMB     139      SOPE     H8R      HAL2     0.900000E-01   1.00800           0
     15923 MEMB     139      SOPE     H8S      HAL2     0.900000E-01   1.00800           0
     15924 MEMB     139      SOPE     C29      CEL1    -0.150000       12.0110           0
     15925 MEMB     139      SOPE     H91      HEL1     0.150000       1.00800           0
     15926 MEMB     139      SOPE     C210     CEL1    -0.150000       12.0110           0
     15927 MEMB     139      SOPE     H101     HEL1     0.150000       1.00800           0
     15928 MEMB     139      SOPE     C211     CTL2    -0.180000       12.0110           0
     15929 MEMB     139      SOPE     H11R     HAL2     0.900000E-01   1.00800           0
     15930 MEMB     139      SOPE     H11S     HAL2     0.900000E-01   1.00800           0
     15931 MEMB     139      SOPE     C212     CTL2    -0.180000       12.0110           0
     15932 MEMB     139      SOPE     H12R     HAL2     0.900000E-01   1.00800           0
     15933 MEMB     139      SOPE     H12S     HAL2     0.900000E-01   1.00800           0
     15934 MEMB     139      SOPE     C213     CTL2    -0.180000       12.0110           0
     15935 MEMB     139      SOPE     H13R     HAL2     0.900000E-01   1.00800           0
     15936 MEMB     139      SOPE     H13S     HAL2     0.900000E-01   1.00800           0
     15937 MEMB     139      SOPE     C214     CTL2    -0.180000       12.0110           0
     15938 MEMB     139      SOPE     H14R     HAL2     0.900000E-01   1.00800           0
     15939 MEMB     139      SOPE     H14S     HAL2     0.900000E-01   1.00800           0
     15940 MEMB     139      SOPE     C215     CTL2    -0.180000       12.0110           0
     15941 MEMB     139      SOPE     H15R     HAL2     0.900000E-01   1.00800           0
     15942 MEMB     139      SOPE     H15S     HAL2     0.900000E-01   1.00800           0
     15943 MEMB     139      SOPE     C216     CTL2    -0.180000       12.0110           0
     15944 MEMB     139      SOPE     H16R     HAL2     0.900000E-01   1.00800           0
     15945 MEMB     139      SOPE     H16S     HAL2     0.900000E-01   1.00800           0
     15946 MEMB     139      SOPE     C217     CTL2    -0.180000       12.0110           0
     15947 MEMB     139      SOPE     H17R     HAL2     0.900000E-01   1.00800           0
     15948 MEMB     139      SOPE     H17S     HAL2     0.900000E-01   1.00800           0
     15949 MEMB     139      SOPE     C218     CTL3    -0.270000       12.0110           0
     15950 MEMB     139      SOPE     H18R     HAL3     0.900000E-01   1.00800           0
     15951 MEMB     139      SOPE     H18S     HAL3     0.900000E-01   1.00800           0
     15952 MEMB     139      SOPE     H18T     HAL3     0.900000E-01   1.00800           0
     15953 MEMB     139      SOPE     C33      CTL2    -0.180000       12.0110           0
     15954 MEMB     139      SOPE     H3X      HAL2     0.900000E-01   1.00800           0
     15955 MEMB     139      SOPE     H3Y      HAL2     0.900000E-01   1.00800           0
     15956 MEMB     139      SOPE     C34      CTL2    -0.180000       12.0110           0
     15957 MEMB     139      SOPE     H4X      HAL2     0.900000E-01   1.00800           0
     15958 MEMB     139      SOPE     H4Y      HAL2     0.900000E-01   1.00800           0
     15959 MEMB     139      SOPE     C35      CTL2    -0.180000       12.0110           0
     15960 MEMB     139      SOPE     H5X      HAL2     0.900000E-01   1.00800           0
     15961 MEMB     139      SOPE     H5Y      HAL2     0.900000E-01   1.00800           0
     15962 MEMB     139      SOPE     C36      CTL2    -0.180000       12.0110           0
     15963 MEMB     139      SOPE     H6X      HAL2     0.900000E-01   1.00800           0
     15964 MEMB     139      SOPE     H6Y      HAL2     0.900000E-01   1.00800           0
     15965 MEMB     139      SOPE     C37      CTL2    -0.180000       12.0110           0
     15966 MEMB     139      SOPE     H7X      HAL2     0.900000E-01   1.00800           0
     15967 MEMB     139      SOPE     H7Y      HAL2     0.900000E-01   1.00800           0
     15968 MEMB     139      SOPE     C38      CTL2    -0.180000       12.0110           0
     15969 MEMB     139      SOPE     H8X      HAL2     0.900000E-01   1.00800           0
     15970 MEMB     139      SOPE     H8Y      HAL2     0.900000E-01   1.00800           0
     15971 MEMB     139      SOPE     C39      CTL2    -0.180000       12.0110           0
     15972 MEMB     139      SOPE     H9X      HAL2     0.900000E-01   1.00800           0
     15973 MEMB     139      SOPE     H9Y      HAL2     0.900000E-01   1.00800           0
     15974 MEMB     139      SOPE     C310     CTL2    -0.180000       12.0110           0
     15975 MEMB     139      SOPE     H10X     HAL2     0.900000E-01   1.00800           0
     15976 MEMB     139      SOPE     H10Y     HAL2     0.900000E-01   1.00800           0
     15977 MEMB     139      SOPE     C311     CTL2    -0.180000       12.0110           0
     15978 MEMB     139      SOPE     H11X     HAL2     0.900000E-01   1.00800           0
     15979 MEMB     139      SOPE     H11Y     HAL2     0.900000E-01   1.00800           0
     15980 MEMB     139      SOPE     C312     CTL2    -0.180000       12.0110           0
     15981 MEMB     139      SOPE     H12X     HAL2     0.900000E-01   1.00800           0
     15982 MEMB     139      SOPE     H12Y     HAL2     0.900000E-01   1.00800           0
     15983 MEMB     139      SOPE     C313     CTL2    -0.180000       12.0110           0
     15984 MEMB     139      SOPE     H13X     HAL2     0.900000E-01   1.00800           0
     15985 MEMB     139      SOPE     H13Y     HAL2     0.900000E-01   1.00800           0
     15986 MEMB     139      SOPE     C314     CTL2    -0.180000       12.0110           0
     15987 MEMB     139      SOPE     H14X     HAL2     0.900000E-01   1.00800           0
     15988 MEMB     139      SOPE     H14Y     HAL2     0.900000E-01   1.00800           0
     15989 MEMB     139      SOPE     C315     CTL2    -0.180000       12.0110           0
     15990 MEMB     139      SOPE     H15X     HAL2     0.900000E-01   1.00800           0
     15991 MEMB     139      SOPE     H15Y     HAL2     0.900000E-01   1.00800           0
     15992 MEMB     139      SOPE     C316     CTL2    -0.180000       12.0110           0
     15993 MEMB     139      SOPE     H16X     HAL2     0.900000E-01   1.00800           0
     15994 MEMB     139      SOPE     H16Y     HAL2     0.900000E-01   1.00800           0
     15995 MEMB     139      SOPE     C317     CTL2    -0.180000       12.0110           0
     15996 MEMB     139      SOPE     H17X     HAL2     0.900000E-01   1.00800           0
     15997 MEMB     139      SOPE     H17Y     HAL2     0.900000E-01   1.00800           0
     15998 MEMB     139      SOPE     C318     CTL3    -0.270000       12.0110           0
     15999 MEMB     139      SOPE     H18X     HAL3     0.900000E-01   1.00800           0
     16000 MEMB     139      SOPE     H18Y     HAL3     0.900000E-01   1.00800           0
     16001 MEMB     139      SOPE     H18Z     HAL3     0.900000E-01   1.00800           0
     16002 MEMB     140      CHL1     C3       CRL1     0.140000       12.0110           0
     16003 MEMB     140      CHL1     H3       HGA1     0.900000E-01   1.00800           0
     16004 MEMB     140      CHL1     O3       OHL     -0.660000       15.9994           0
     16005 MEMB     140      CHL1     H3'      HOL      0.430000       1.00800           0
     16006 MEMB     140      CHL1     C4       CRL2    -0.180000       12.0110           0
     16007 MEMB     140      CHL1     H4A      HGA2     0.900000E-01   1.00800           0
     16008 MEMB     140      CHL1     H4B      HGA2     0.900000E-01   1.00800           0
     16009 MEMB     140      CHL1     C5       CEL1      0.00000       12.0110           0
     16010 MEMB     140      CHL1     C6       CEL1    -0.150000       12.0110           0
     16011 MEMB     140      CHL1     H6       HEL1     0.150000       1.00800           0
     16012 MEMB     140      CHL1     C7       CRL2    -0.180000       12.0110           0
     16013 MEMB     140      CHL1     H7A      HGA2     0.900000E-01   1.00800           0
     16014 MEMB     140      CHL1     H7B      HGA2     0.900000E-01   1.00800           0
     16015 MEMB     140      CHL1     C8       CRL1    -0.900000E-01   12.0110           0
     16016 MEMB     140      CHL1     H8       HGA1     0.900000E-01   1.00800           0
     16017 MEMB     140      CHL1     C14      CRL1    -0.900000E-01   12.0110           0
     16018 MEMB     140      CHL1     H14      HGA1     0.900000E-01   1.00800           0
     16019 MEMB     140      CHL1     C15      CRL2    -0.180000       12.0110           0
     16020 MEMB     140      CHL1     H15A     HGA2     0.900000E-01   1.00800           0
     16021 MEMB     140      CHL1     H15B     HGA2     0.900000E-01   1.00800           0
     16022 MEMB     140      CHL1     C16      CRL2    -0.180000       12.0110           0
     16023 MEMB     140      CHL1     H16A     HGA2     0.900000E-01   1.00800           0
     16024 MEMB     140      CHL1     H16B     HGA2     0.900000E-01   1.00800           0
     16025 MEMB     140      CHL1     C17      CRL1    -0.900000E-01   12.0110           0
     16026 MEMB     140      CHL1     H17      HGA1     0.900000E-01   1.00800           0
     16027 MEMB     140      CHL1     C13      CRL1      0.00000       12.0110           0
     16028 MEMB     140      CHL1     C18      CTL3    -0.270000       12.0110           0
     16029 MEMB     140      CHL1     H18A     HAL3     0.900000E-01   1.00800           0
     16030 MEMB     140      CHL1     H18B     HAL3     0.900000E-01   1.00800           0
     16031 MEMB     140      CHL1     H18C     HAL3     0.900000E-01   1.00800           0
     16032 MEMB     140      CHL1     C12      CRL2    -0.180000       12.0110           0
     16033 MEMB     140      CHL1     H12A     HGA2     0.900000E-01   1.00800           0
     16034 MEMB     140      CHL1     H12B     HGA2     0.900000E-01   1.00800           0
     16035 MEMB     140      CHL1     C11      CRL2    -0.180000       12.0110           0
     16036 MEMB     140      CHL1     H11A     HGA2     0.900000E-01   1.00800           0
     16037 MEMB     140      CHL1     H11B     HGA2     0.900000E-01   1.00800           0
     16038 MEMB     140      CHL1     C9       CRL1    -0.900000E-01   12.0110           0
     16039 MEMB     140      CHL1     H9       HGA1     0.900000E-01   1.00800           0
     16040 MEMB     140      CHL1     C10      CRL1      0.00000       12.0110           0
     16041 MEMB     140      CHL1     C19      CTL3    -0.270000       12.0110           0
     16042 MEMB     140      CHL1     H19A     HAL3     0.900000E-01   1.00800           0
     16043 MEMB     140      CHL1     H19B     HAL3     0.900000E-01   1.00800           0
     16044 MEMB     140      CHL1     H19C     HAL3     0.900000E-01   1.00800           0
     16045 MEMB     140      CHL1     C1       CRL2    -0.180000       12.0110           0
     16046 MEMB     140      CHL1     H1A      HGA2     0.900000E-01   1.00800           0
     16047 MEMB     140      CHL1     H1B      HGA2     0.900000E-01   1.00800           0
     16048 MEMB     140      CHL1     C2       CRL2    -0.180000       12.0110           0
     16049 MEMB     140      CHL1     H2A      HGA2     0.900000E-01   1.00800           0
     16050 MEMB     140      CHL1     H2B      HGA2     0.900000E-01   1.00800           0
     16051 MEMB     140      CHL1     C20      CTL1    -0.900000E-01   12.0110           0
     16052 MEMB     140      CHL1     H20      HAL1     0.900000E-01   1.00800           0
     16053 MEMB     140      CHL1     C21      CTL3    -0.270000       12.0110           0
     16054 MEMB     140      CHL1     H21A     HAL3     0.900000E-01   1.00800           0
     16055 MEMB     140      CHL1     H21B     HAL3     0.900000E-01   1.00800           0
     16056 MEMB     140      CHL1     H21C     HAL3     0.900000E-01   1.00800           0
     16057 MEMB     140      CHL1     C22      CTL2    -0.180000       12.0110           0
     16058 MEMB     140      CHL1     H22A     HAL2     0.900000E-01   1.00800           0
     16059 MEMB     140      CHL1     H22B     HAL2     0.900000E-01   1.00800           0
     16060 MEMB     140      CHL1     C23      CTL2    -0.180000       12.0110           0
     16061 MEMB     140      CHL1     H23A     HAL2     0.900000E-01   1.00800           0
     16062 MEMB     140      CHL1     H23B     HAL2     0.900000E-01   1.00800           0
     16063 MEMB     140      CHL1     C24      CTL2    -0.180000       12.0110           0
     16064 MEMB     140      CHL1     H24A     HAL2     0.900000E-01   1.00800           0
     16065 MEMB     140      CHL1     H24B     HAL2     0.900000E-01   1.00800           0
     16066 MEMB     140      CHL1     C25      CTL1    -0.900000E-01   12.0110           0
     16067 MEMB     140      CHL1     H25      HAL1     0.900000E-01   1.00800           0
     16068 MEMB     140      CHL1     C26      CTL3    -0.270000       12.0110           0
     16069 MEMB     140      CHL1     H26A     HAL3     0.900000E-01   1.00800           0
     16070 MEMB     140      CHL1     H26B     HAL3     0.900000E-01   1.00800           0
     16071 MEMB     140      CHL1     H26C     HAL3     0.900000E-01   1.00800           0
     16072 MEMB     140      CHL1     C27      CTL3    -0.270000       12.0110           0
     16073 MEMB     140      CHL1     H27A     HAL3     0.900000E-01   1.00800           0
     16074 MEMB     140      CHL1     H27B     HAL3     0.900000E-01   1.00800           0
     16075 MEMB     140      CHL1     H27C     HAL3     0.900000E-01   1.00800           0
     16076 MEMB     141      SAPC     N        NTL     -0.600000       14.0070           0
     16077 MEMB     141      SAPC     C12      CTL2    -0.100000       12.0110           0
     16078 MEMB     141      SAPC     H12A     HL       0.250000       1.00800           0
     16079 MEMB     141      SAPC     H12B     HL       0.250000       1.00800           0
     16080 MEMB     141      SAPC     C13      CTL5    -0.350000       12.0110           0
     16081 MEMB     141      SAPC     H13A     HL       0.250000       1.00800           0
     16082 MEMB     141      SAPC     H13B     HL       0.250000       1.00800           0
     16083 MEMB     141      SAPC     H13C     HL       0.250000       1.00800           0
     16084 MEMB     141      SAPC     C14      CTL5    -0.350000       12.0110           0
     16085 MEMB     141      SAPC     H14A     HL       0.250000       1.00800           0
     16086 MEMB     141      SAPC     H14B     HL       0.250000       1.00800           0
     16087 MEMB     141      SAPC     H14C     HL       0.250000       1.00800           0
     16088 MEMB     141      SAPC     C15      CTL5    -0.350000       12.0110           0
     16089 MEMB     141      SAPC     H15A     HL       0.250000       1.00800           0
     16090 MEMB     141      SAPC     H15B     HL       0.250000       1.00800           0
     16091 MEMB     141      SAPC     H15C     HL       0.250000       1.00800           0
     16092 MEMB     141      SAPC     C11      CTL2    -0.800000E-01   12.0110           0
     16093 MEMB     141      SAPC     H11A     HAL2     0.900000E-01   1.00800           0
     16094 MEMB     141      SAPC     H11B     HAL2     0.900000E-01   1.00800           0
     16095 MEMB     141      SAPC     P        PL        1.50000       30.9740           0
     16096 MEMB     141      SAPC     O13      O2L     -0.780000       15.9994           0
     16097 MEMB     141      SAPC     O14      O2L     -0.780000       15.9994           0
     16098 MEMB     141      SAPC     O12      OSLP    -0.570000       15.9994           0
     16099 MEMB     141      SAPC     O11      OSLP    -0.570000       15.9994           0
     16100 MEMB     141      SAPC     C1       CTL2    -0.800000E-01   12.0110           0
     16101 MEMB     141      SAPC     HA       HAL2     0.900000E-01   1.00800           0
     16102 MEMB     141      SAPC     HB       HAL2     0.900000E-01   1.00800           0
     16103 MEMB     141      SAPC     C2       CTL1     0.170000       12.0110           0
     16104 MEMB     141      SAPC     HS       HAL1     0.900000E-01   1.00800           0
     16105 MEMB     141      SAPC     O21      OSL     -0.490000       15.9994           0
     16106 MEMB     141      SAPC     C21      CL       0.900000       12.0110           0
     16107 MEMB     141      SAPC     O22      OBL     -0.630000       15.9994           0
     16108 MEMB     141      SAPC     C22      CTL2    -0.220000       12.0110           0
     16109 MEMB     141      SAPC     H2R      HAL2     0.900000E-01   1.00800           0
     16110 MEMB     141      SAPC     H2S      HAL2     0.900000E-01   1.00800           0
     16111 MEMB     141      SAPC     C3       CTL2     0.800000E-01   12.0110           0
     16112 MEMB     141      SAPC     HX       HAL2     0.900000E-01   1.00800           0
     16113 MEMB     141      SAPC     HY       HAL2     0.900000E-01   1.00800           0
     16114 MEMB     141      SAPC     O31      OSL     -0.490000       15.9994           0
     16115 MEMB     141      SAPC     C31      CL       0.900000       12.0110           0
     16116 MEMB     141      SAPC     O32      OBL     -0.630000       15.9994           0
     16117 MEMB     141      SAPC     C32      CTL2    -0.220000       12.0110           0
     16118 MEMB     141      SAPC     H2X      HAL2     0.900000E-01   1.00800           0
     16119 MEMB     141      SAPC     H2Y      HAL2     0.900000E-01   1.00800           0
     16120 MEMB     141      SAPC     C23      CTL2    -0.180000       12.0110           0
     16121 MEMB     141      SAPC     H3R      HAL2     0.900000E-01   1.00800           0
     16122 MEMB     141      SAPC     H3S      HAL2     0.900000E-01   1.00800           0
     16123 MEMB     141      SAPC     C24      CTL2    -0.180000       12.0110           0
     16124 MEMB     141      SAPC     H4R      HAL2     0.900000E-01   1.00800           0
     16125 MEMB     141      SAPC     H4S      HAL2     0.900000E-01   1.00800           0
     16126 MEMB     141      SAPC     C25      CEL1    -0.150000       12.0110           0
     16127 MEMB     141      SAPC     H5R      HEL1     0.150000       1.00800           0
     16128 MEMB     141      SAPC     C26      CEL1    -0.150000       12.0110           0
     16129 MEMB     141      SAPC     H6R      HEL1     0.150000       1.00800           0
     16130 MEMB     141      SAPC     C27      CTL2    -0.180000       12.0110           0
     16131 MEMB     141      SAPC     H7R      HAL2     0.900000E-01   1.00800           0
     16132 MEMB     141      SAPC     H7S      HAL2     0.900000E-01   1.00800           0
     16133 MEMB     141      SAPC     C28      CEL1    -0.150000       12.0110           0
     16134 MEMB     141      SAPC     H8R      HEL1     0.150000       1.00800           0
     16135 MEMB     141      SAPC     C29      CEL1    -0.150000       12.0110           0
     16136 MEMB     141      SAPC     H9R      HEL1     0.150000       1.00800           0
     16137 MEMB     141      SAPC     C210     CTL2    -0.180000       12.0110           0
     16138 MEMB     141      SAPC     H10R     HAL2     0.900000E-01   1.00800           0
     16139 MEMB     141      SAPC     H10S     HAL2     0.900000E-01   1.00800           0
     16140 MEMB     141      SAPC     C211     CEL1    -0.150000       12.0110           0
     16141 MEMB     141      SAPC     H11R     HEL1     0.150000       1.00800           0
     16142 MEMB     141      SAPC     C212     CEL1    -0.150000       12.0110           0
     16143 MEMB     141      SAPC     H12R     HEL1     0.150000       1.00800           0
     16144 MEMB     141      SAPC     C213     CTL2    -0.180000       12.0110           0
     16145 MEMB     141      SAPC     H13R     HAL2     0.900000E-01   1.00800           0
     16146 MEMB     141      SAPC     H13S     HAL2     0.900000E-01   1.00800           0
     16147 MEMB     141      SAPC     C214     CEL1    -0.150000       12.0110           0
     16148 MEMB     141      SAPC     H14R     HEL1     0.150000       1.00800           0
     16149 MEMB     141      SAPC     C215     CEL1    -0.150000       12.0110           0
     16150 MEMB     141      SAPC     H15R     HEL1     0.150000       1.00800           0
     16151 MEMB     141      SAPC     C216     CTL2    -0.180000       12.0110           0
     16152 MEMB     141      SAPC     H16R     HAL2     0.900000E-01   1.00800           0
     16153 MEMB     141      SAPC     H16S     HAL2     0.900000E-01   1.00800           0
     16154 MEMB     141      SAPC     C217     CTL2    -0.180000       12.0110           0
     16155 MEMB     141      SAPC     H17R     HAL2     0.900000E-01   1.00800           0
     16156 MEMB     141      SAPC     H17S     HAL2     0.900000E-01   1.00800           0
     16157 MEMB     141      SAPC     C218     CTL2    -0.270000       12.0110           0
     16158 MEMB     141      SAPC     H18R     HAL2     0.900000E-01   1.00800           0
     16159 MEMB     141      SAPC     H18S     HAL2     0.900000E-01   1.00800           0
     16160 MEMB     141      SAPC     C219     CTL2    -0.180000       12.0110           0
     16161 MEMB     141      SAPC     H19R     HAL2     0.900000E-01   1.00800           0
     16162 MEMB     141      SAPC     H19S     HAL2     0.900000E-01   1.00800           0
     16163 MEMB     141      SAPC     C220     CTL3    -0.180000       12.0110           0
     16164 MEMB     141      SAPC     H20R     HAL3     0.900000E-01   1.00800           0
     16165 MEMB     141      SAPC     H20S     HAL3     0.900000E-01   1.00800           0
     16166 MEMB     141      SAPC     H20T     HAL3     0.900000E-01   1.00800           0
     16167 MEMB     141      SAPC     C33      CTL2    -0.180000       12.0110           0
     16168 MEMB     141      SAPC     H3X      HAL2     0.900000E-01   1.00800           0
     16169 MEMB     141      SAPC     H3Y      HAL2     0.900000E-01   1.00800           0
     16170 MEMB     141      SAPC     C34      CTL2    -0.180000       12.0110           0
     16171 MEMB     141      SAPC     H4X      HAL2     0.900000E-01   1.00800           0
     16172 MEMB     141      SAPC     H4Y      HAL2     0.900000E-01   1.00800           0
     16173 MEMB     141      SAPC     C35      CTL2    -0.180000       12.0110           0
     16174 MEMB     141      SAPC     H5X      HAL2     0.900000E-01   1.00800           0
     16175 MEMB     141      SAPC     H5Y      HAL2     0.900000E-01   1.00800           0
     16176 MEMB     141      SAPC     C36      CTL2    -0.180000       12.0110           0
     16177 MEMB     141      SAPC     H6X      HAL2     0.900000E-01   1.00800           0
     16178 MEMB     141      SAPC     H6Y      HAL2     0.900000E-01   1.00800           0
     16179 MEMB     141      SAPC     C37      CTL2    -0.180000       12.0110           0
     16180 MEMB     141      SAPC     H7X      HAL2     0.900000E-01   1.00800           0
     16181 MEMB     141      SAPC     H7Y      HAL2     0.900000E-01   1.00800           0
     16182 MEMB     141      SAPC     C38      CTL2    -0.180000       12.0110           0
     16183 MEMB     141      SAPC     H8X      HAL2     0.900000E-01   1.00800           0
     16184 MEMB     141      SAPC     H8Y      HAL2     0.900000E-01   1.00800           0
     16185 MEMB     141      SAPC     C39      CTL2    -0.180000       12.0110           0
     16186 MEMB     141      SAPC     H9X      HAL2     0.900000E-01   1.00800           0
     16187 MEMB     141      SAPC     H9Y      HAL2     0.900000E-01   1.00800           0
     16188 MEMB     141      SAPC     C310     CTL2    -0.180000       12.0110           0
     16189 MEMB     141      SAPC     H10X     HAL2     0.900000E-01   1.00800           0
     16190 MEMB     141      SAPC     H10Y     HAL2     0.900000E-01   1.00800           0
     16191 MEMB     141      SAPC     C311     CTL2    -0.180000       12.0110           0
     16192 MEMB     141      SAPC     H11X     HAL2     0.900000E-01   1.00800           0
     16193 MEMB     141      SAPC     H11Y     HAL2     0.900000E-01   1.00800           0
     16194 MEMB     141      SAPC     C312     CTL2    -0.180000       12.0110           0
     16195 MEMB     141      SAPC     H12X     HAL2     0.900000E-01   1.00800           0
     16196 MEMB     141      SAPC     H12Y     HAL2     0.900000E-01   1.00800           0
     16197 MEMB     141      SAPC     C313     CTL2    -0.180000       12.0110           0
     16198 MEMB     141      SAPC     H13X     HAL2     0.900000E-01   1.00800           0
     16199 MEMB     141      SAPC     H13Y     HAL2     0.900000E-01   1.00800           0
     16200 MEMB     141      SAPC     C314     CTL2    -0.180000       12.0110           0
     16201 MEMB     141      SAPC     H14X     HAL2     0.900000E-01   1.00800           0
     16202 MEMB     141      SAPC     H14Y     HAL2     0.900000E-01   1.00800           0
     16203 MEMB     141      SAPC     C315     CTL2    -0.180000       12.0110           0
     16204 MEMB     141      SAPC     H15X     HAL2     0.900000E-01   1.00800           0
     16205 MEMB     141      SAPC     H15Y     HAL2     0.900000E-01   1.00800           0
     16206 MEMB     141      SAPC     C316     CTL2    -0.180000       12.0110           0
     16207 MEMB     141      SAPC     H16X     HAL2     0.900000E-01   1.00800           0
     16208 MEMB     141      SAPC     H16Y     HAL2     0.900000E-01   1.00800           0
     16209 MEMB     141      SAPC     C317     CTL2    -0.180000       12.0110           0
     16210 MEMB     141      SAPC     H17X     HAL2     0.900000E-01   1.00800           0
     16211 MEMB     141      SAPC     H17Y     HAL2     0.900000E-01   1.00800           0
     16212 MEMB     141      SAPC     C318     CTL3    -0.270000       12.0110           0
     16213 MEMB     141      SAPC     H18X     HAL3     0.900000E-01   1.00800           0
     16214 MEMB     141      SAPC     H18Y     HAL3     0.900000E-01   1.00800           0
     16215 MEMB     141      SAPC     H18Z     HAL3     0.900000E-01   1.00800           0
     16216 MEMB     142      SAPS     N        NH3L    -0.300000       14.0070           0
     16217 MEMB     142      SAPS     HN1      HCL      0.330000       1.00800           0
     16218 MEMB     142      SAPS     HN2      HCL      0.330000       1.00800           0
     16219 MEMB     142      SAPS     HN3      HCL      0.330000       1.00800           0
     16220 MEMB     142      SAPS     C12      CTL1     0.210000       12.0110           0
     16221 MEMB     142      SAPS     H12A     HBL      0.100000       1.00800           0
     16222 MEMB     142      SAPS     C13      CCL      0.340000       12.0110           0
     16223 MEMB     142      SAPS     O13A     OCL     -0.670000       15.9994           0
     16224 MEMB     142      SAPS     O13B     OCL     -0.670000       15.9994           0
     16225 MEMB     142      SAPS     C11      CTL2    -0.800000E-01   12.0110           0
     16226 MEMB     142      SAPS     H11A     HAL2     0.900000E-01   1.00800           0
     16227 MEMB     142      SAPS     H11B     HAL2     0.900000E-01   1.00800           0
     16228 MEMB     142      SAPS     P        PL        1.50000       30.9740           0
     16229 MEMB     142      SAPS     O13      O2L     -0.780000       15.9994           0
     16230 MEMB     142      SAPS     O14      O2L     -0.780000       15.9994           0
     16231 MEMB     142      SAPS     O12      OSLP    -0.570000       15.9994           0
     16232 MEMB     142      SAPS     O11      OSLP    -0.570000       15.9994           0
     16233 MEMB     142      SAPS     C1       CTL2    -0.800000E-01   12.0110           0
     16234 MEMB     142      SAPS     HA       HAL2     0.900000E-01   1.00800           0
     16235 MEMB     142      SAPS     HB       HAL2     0.900000E-01   1.00800           0
     16236 MEMB     142      SAPS     C2       CTL1     0.170000       12.0110           0
     16237 MEMB     142      SAPS     HS       HAL1     0.900000E-01   1.00800           0
     16238 MEMB     142      SAPS     O21      OSL     -0.490000       15.9994           0
     16239 MEMB     142      SAPS     C21      CL       0.900000       12.0110           0
     16240 MEMB     142      SAPS     O22      OBL     -0.630000       15.9994           0
     16241 MEMB     142      SAPS     C22      CTL2    -0.220000       12.0110           0
     16242 MEMB     142      SAPS     H2R      HAL2     0.900000E-01   1.00800           0
     16243 MEMB     142      SAPS     H2S      HAL2     0.900000E-01   1.00800           0
     16244 MEMB     142      SAPS     C3       CTL2     0.800000E-01   12.0110           0
     16245 MEMB     142      SAPS     HX       HAL2     0.900000E-01   1.00800           0
     16246 MEMB     142      SAPS     HY       HAL2     0.900000E-01   1.00800           0
     16247 MEMB     142      SAPS     O31      OSL     -0.490000       15.9994           0
     16248 MEMB     142      SAPS     C31      CL       0.900000       12.0110           0
     16249 MEMB     142      SAPS     O32      OBL     -0.630000       15.9994           0
     16250 MEMB     142      SAPS     C32      CTL2    -0.220000       12.0110           0
     16251 MEMB     142      SAPS     H2X      HAL2     0.900000E-01   1.00800           0
     16252 MEMB     142      SAPS     H2Y      HAL2     0.900000E-01   1.00800           0
     16253 MEMB     142      SAPS     C23      CTL2    -0.180000       12.0110           0
     16254 MEMB     142      SAPS     H3R      HAL2     0.900000E-01   1.00800           0
     16255 MEMB     142      SAPS     H3S      HAL2     0.900000E-01   1.00800           0
     16256 MEMB     142      SAPS     C24      CTL2    -0.180000       12.0110           0
     16257 MEMB     142      SAPS     H4R      HAL2     0.900000E-01   1.00800           0
     16258 MEMB     142      SAPS     H4S      HAL2     0.900000E-01   1.00800           0
     16259 MEMB     142      SAPS     C25      CEL1    -0.150000       12.0110           0
     16260 MEMB     142      SAPS     H5R      HEL1     0.150000       1.00800           0
     16261 MEMB     142      SAPS     C26      CEL1    -0.150000       12.0110           0
     16262 MEMB     142      SAPS     H6R      HEL1     0.150000       1.00800           0
     16263 MEMB     142      SAPS     C27      CTL2    -0.180000       12.0110           0
     16264 MEMB     142      SAPS     H7R      HAL2     0.900000E-01   1.00800           0
     16265 MEMB     142      SAPS     H7S      HAL2     0.900000E-01   1.00800           0
     16266 MEMB     142      SAPS     C28      CEL1    -0.150000       12.0110           0
     16267 MEMB     142      SAPS     H8R      HEL1     0.150000       1.00800           0
     16268 MEMB     142      SAPS     C29      CEL1    -0.150000       12.0110           0
     16269 MEMB     142      SAPS     H9R      HEL1     0.150000       1.00800           0
     16270 MEMB     142      SAPS     C210     CTL2    -0.180000       12.0110           0
     16271 MEMB     142      SAPS     H10R     HAL2     0.900000E-01   1.00800           0
     16272 MEMB     142      SAPS     H10S     HAL2     0.900000E-01   1.00800           0
     16273 MEMB     142      SAPS     C211     CEL1    -0.150000       12.0110           0
     16274 MEMB     142      SAPS     H11R     HEL1     0.150000       1.00800           0
     16275 MEMB     142      SAPS     C212     CEL1    -0.150000       12.0110           0
     16276 MEMB     142      SAPS     H12R     HEL1     0.150000       1.00800           0
     16277 MEMB     142      SAPS     C213     CTL2    -0.180000       12.0110           0
     16278 MEMB     142      SAPS     H13R     HAL2     0.900000E-01   1.00800           0
     16279 MEMB     142      SAPS     H13S     HAL2     0.900000E-01   1.00800           0
     16280 MEMB     142      SAPS     C214     CEL1    -0.150000       12.0110           0
     16281 MEMB     142      SAPS     H14R     HEL1     0.150000       1.00800           0
     16282 MEMB     142      SAPS     C215     CEL1    -0.150000       12.0110           0
     16283 MEMB     142      SAPS     H15R     HEL1     0.150000       1.00800           0
     16284 MEMB     142      SAPS     C216     CTL2    -0.180000       12.0110           0
     16285 MEMB     142      SAPS     H16R     HAL2     0.900000E-01   1.00800           0
     16286 MEMB     142      SAPS     H16S     HAL2     0.900000E-01   1.00800           0
     16287 MEMB     142      SAPS     C217     CTL2    -0.180000       12.0110           0
     16288 MEMB     142      SAPS     H17R     HAL2     0.900000E-01   1.00800           0
     16289 MEMB     142      SAPS     H17S     HAL2     0.900000E-01   1.00800           0
     16290 MEMB     142      SAPS     C218     CTL2    -0.180000       12.0110           0
     16291 MEMB     142      SAPS     H18R     HAL2     0.900000E-01   1.00800           0
     16292 MEMB     142      SAPS     H18S     HAL2     0.900000E-01   1.00800           0
     16293 MEMB     142      SAPS     C219     CTL2    -0.180000       12.0110           0
     16294 MEMB     142      SAPS     H19R     HAL2     0.900000E-01   1.00800           0
     16295 MEMB     142      SAPS     H19S     HAL2     0.900000E-01   1.00800           0
     16296 MEMB     142      SAPS     C220     CTL3    -0.270000       12.0110           0
     16297 MEMB     142      SAPS     H20R     HAL3     0.900000E-01   1.00800           0
     16298 MEMB     142      SAPS     H20S     HAL3     0.900000E-01   1.00800           0
     16299 MEMB     142      SAPS     H20T     HAL3     0.900000E-01   1.00800           0
     16300 MEMB     142      SAPS     C33      CTL2    -0.180000       12.0110           0
     16301 MEMB     142      SAPS     H3X      HAL2     0.900000E-01   1.00800           0
     16302 MEMB     142      SAPS     H3Y      HAL2     0.900000E-01   1.00800           0
     16303 MEMB     142      SAPS     C34      CTL2    -0.180000       12.0110           0
     16304 MEMB     142      SAPS     H4X      HAL2     0.900000E-01   1.00800           0
     16305 MEMB     142      SAPS     H4Y      HAL2     0.900000E-01   1.00800           0
     16306 MEMB     142      SAPS     C35      CTL2    -0.180000       12.0110           0
     16307 MEMB     142      SAPS     H5X      HAL2     0.900000E-01   1.00800           0
     16308 MEMB     142      SAPS     H5Y      HAL2     0.900000E-01   1.00800           0
     16309 MEMB     142      SAPS     C36      CTL2    -0.180000       12.0110           0
     16310 MEMB     142      SAPS     H6X      HAL2     0.900000E-01   1.00800           0
     16311 MEMB     142      SAPS     H6Y      HAL2     0.900000E-01   1.00800           0
     16312 MEMB     142      SAPS     C37      CTL2    -0.180000       12.0110           0
     16313 MEMB     142      SAPS     H7X      HAL2     0.900000E-01   1.00800           0
     16314 MEMB     142      SAPS     H7Y      HAL2     0.900000E-01   1.00800           0
     16315 MEMB     142      SAPS     C38      CTL2    -0.180000       12.0110           0
     16316 MEMB     142      SAPS     H8X      HAL2     0.900000E-01   1.00800           0
     16317 MEMB     142      SAPS     H8Y      HAL2     0.900000E-01   1.00800           0
     16318 MEMB     142      SAPS     C39      CTL2    -0.180000       12.0110           0
     16319 MEMB     142      SAPS     H9X      HAL2     0.900000E-01   1.00800           0
     16320 MEMB     142      SAPS     H9Y      HAL2     0.900000E-01   1.00800           0
     16321 MEMB     142      SAPS     C310     CTL2    -0.180000       12.0110           0
     16322 MEMB     142      SAPS     H10X     HAL2     0.900000E-01   1.00800           0
     16323 MEMB     142      SAPS     H10Y     HAL2     0.900000E-01   1.00800           0
     16324 MEMB     142      SAPS     C311     CTL2    -0.180000       12.0110           0
     16325 MEMB     142      SAPS     H11X     HAL2     0.900000E-01   1.00800           0
     16326 MEMB     142      SAPS     H11Y     HAL2     0.900000E-01   1.00800           0
     16327 MEMB     142      SAPS     C312     CTL2    -0.180000       12.0110           0
     16328 MEMB     142      SAPS     H12X     HAL2     0.900000E-01   1.00800           0
     16329 MEMB     142      SAPS     H12Y     HAL2     0.900000E-01   1.00800           0
     16330 MEMB     142      SAPS     C313     CTL2    -0.180000       12.0110           0
     16331 MEMB     142      SAPS     H13X     HAL2     0.900000E-01   1.00800           0
     16332 MEMB     142      SAPS     H13Y     HAL2     0.900000E-01   1.00800           0
     16333 MEMB     142      SAPS     C314     CTL2    -0.180000       12.0110           0
     16334 MEMB     142      SAPS     H14X     HAL2     0.900000E-01   1.00800           0
     16335 MEMB     142      SAPS     H14Y     HAL2     0.900000E-01   1.00800           0
     16336 MEMB     142      SAPS     C315     CTL2    -0.180000       12.0110           0
     16337 MEMB     142      SAPS     H15X     HAL2     0.900000E-01   1.00800           0
     16338 MEMB     142      SAPS     H15Y     HAL2     0.900000E-01   1.00800           0
     16339 MEMB     142      SAPS     C316     CTL2    -0.180000       12.0110           0
     16340 MEMB     142      SAPS     H16X     HAL2     0.900000E-01   1.00800           0
     16341 MEMB     142      SAPS     H16Y     HAL2     0.900000E-01   1.00800           0
     16342 MEMB     142      SAPS     C317     CTL2    -0.180000       12.0110           0
     16343 MEMB     142      SAPS     H17X     HAL2     0.900000E-01   1.00800           0
     16344 MEMB     142      SAPS     H17Y     HAL2     0.900000E-01   1.00800           0
     16345 MEMB     142      SAPS     C318     CTL3    -0.270000       12.0110           0
     16346 MEMB     142      SAPS     H18X     HAL3     0.900000E-01   1.00800           0
     16347 MEMB     142      SAPS     H18Y     HAL3     0.900000E-01   1.00800           0
     16348 MEMB     142      SAPS     H18Z     HAL3     0.900000E-01   1.00800           0
     16349 MEMB     143      SLPC     N        NTL     -0.600000       14.0070           0
     16350 MEMB     143      SLPC     C13      CTL5    -0.350000       12.0110           0
     16351 MEMB     143      SLPC     H13A     HL       0.250000       1.00800           0
     16352 MEMB     143      SLPC     H13B     HL       0.250000       1.00800           0
     16353 MEMB     143      SLPC     H13C     HL       0.250000       1.00800           0
     16354 MEMB     143      SLPC     C14      CTL5    -0.350000       12.0110           0
     16355 MEMB     143      SLPC     H14A     HL       0.250000       1.00800           0
     16356 MEMB     143      SLPC     H14B     HL       0.250000       1.00800           0
     16357 MEMB     143      SLPC     H14C     HL       0.250000       1.00800           0
     16358 MEMB     143      SLPC     C15      CTL5    -0.350000       12.0110           0
     16359 MEMB     143      SLPC     H15A     HL       0.250000       1.00800           0
     16360 MEMB     143      SLPC     H15B     HL       0.250000       1.00800           0
     16361 MEMB     143      SLPC     H15C     HL       0.250000       1.00800           0
     16362 MEMB     143      SLPC     C12      CTL2    -0.100000       12.0110           0
     16363 MEMB     143      SLPC     H12A     HL       0.250000       1.00800           0
     16364 MEMB     143      SLPC     H12B     HL       0.250000       1.00800           0
     16365 MEMB     143      SLPC     C11      CTL2    -0.800000E-01   12.0110           0
     16366 MEMB     143      SLPC     H11A     HAL2     0.900000E-01   1.00800           0
     16367 MEMB     143      SLPC     H11B     HAL2     0.900000E-01   1.00800           0
     16368 MEMB     143      SLPC     P        PL        1.50000       30.9740           0
     16369 MEMB     143      SLPC     O13      O2L     -0.780000       15.9994           0
     16370 MEMB     143      SLPC     O14      O2L     -0.780000       15.9994           0
     16371 MEMB     143      SLPC     O12      OSLP    -0.570000       15.9994           0
     16372 MEMB     143      SLPC     O11      OSLP    -0.570000       15.9994           0
     16373 MEMB     143      SLPC     C1       CTL2    -0.800000E-01   12.0110           0
     16374 MEMB     143      SLPC     HA       HAL2     0.900000E-01   1.00800           0
     16375 MEMB     143      SLPC     HB       HAL2     0.900000E-01   1.00800           0
     16376 MEMB     143      SLPC     C2       CTL1     0.170000       12.0110           0
     16377 MEMB     143      SLPC     HS       HAL1     0.900000E-01   1.00800           0
     16378 MEMB     143      SLPC     O21      OSL     -0.490000       15.9994           0
     16379 MEMB     143      SLPC     C21      CL       0.900000       12.0110           0
     16380 MEMB     143      SLPC     O22      OBL     -0.630000       15.9994           0
     16381 MEMB     143      SLPC     C22      CTL2    -0.220000       12.0110           0
     16382 MEMB     143      SLPC     H2R      HAL2     0.900000E-01   1.00800           0
     16383 MEMB     143      SLPC     H2S      HAL2     0.900000E-01   1.00800           0
     16384 MEMB     143      SLPC     C3       CTL2     0.800000E-01   12.0110           0
     16385 MEMB     143      SLPC     HX       HAL2     0.900000E-01   1.00800           0
     16386 MEMB     143      SLPC     HY       HAL2     0.900000E-01   1.00800           0
     16387 MEMB     143      SLPC     O31      OSL     -0.490000       15.9994           0
     16388 MEMB     143      SLPC     C31      CL       0.900000       12.0110           0
     16389 MEMB     143      SLPC     O32      OBL     -0.630000       15.9994           0
     16390 MEMB     143      SLPC     C32      CTL2    -0.220000       12.0110           0
     16391 MEMB     143      SLPC     H2X      HAL2     0.900000E-01   1.00800           0
     16392 MEMB     143      SLPC     H2Y      HAL2     0.900000E-01   1.00800           0
     16393 MEMB     143      SLPC     C23      CTL2    -0.180000       12.0110           0
     16394 MEMB     143      SLPC     H3R      HAL2     0.900000E-01   1.00800           0
     16395 MEMB     143      SLPC     H3S      HAL2     0.900000E-01   1.00800           0
     16396 MEMB     143      SLPC     C24      CTL2    -0.180000       12.0110           0
     16397 MEMB     143      SLPC     H4R      HAL2     0.900000E-01   1.00800           0
     16398 MEMB     143      SLPC     H4S      HAL2     0.900000E-01   1.00800           0
     16399 MEMB     143      SLPC     C25      CTL2    -0.180000       12.0110           0
     16400 MEMB     143      SLPC     H5R      HAL2     0.900000E-01   1.00800           0
     16401 MEMB     143      SLPC     H5S      HAL2     0.900000E-01   1.00800           0
     16402 MEMB     143      SLPC     C26      CTL2    -0.180000       12.0110           0
     16403 MEMB     143      SLPC     H6R      HAL2     0.900000E-01   1.00800           0
     16404 MEMB     143      SLPC     H6S      HAL2     0.900000E-01   1.00800           0
     16405 MEMB     143      SLPC     C27      CTL2    -0.180000       12.0110           0
     16406 MEMB     143      SLPC     H7R      HAL2     0.900000E-01   1.00800           0
     16407 MEMB     143      SLPC     H7S      HAL2     0.900000E-01   1.00800           0
     16408 MEMB     143      SLPC     C28      CTL2    -0.180000       12.0110           0
     16409 MEMB     143      SLPC     H8R      HAL2     0.900000E-01   1.00800           0
     16410 MEMB     143      SLPC     H8S      HAL2     0.900000E-01   1.00800           0
     16411 MEMB     143      SLPC     C29      CEL1    -0.150000       12.0110           0
     16412 MEMB     143      SLPC     H9R      HEL1     0.150000       1.00800           0
     16413 MEMB     143      SLPC     C210     CEL1    -0.150000       12.0110           0
     16414 MEMB     143      SLPC     H10R     HEL1     0.150000       1.00800           0
     16415 MEMB     143      SLPC     C211     CTL2    -0.180000       12.0110           0
     16416 MEMB     143      SLPC     H11R     HAL2     0.900000E-01   1.00800           0
     16417 MEMB     143      SLPC     H11S     HAL2     0.900000E-01   1.00800           0
     16418 MEMB     143      SLPC     C212     CEL1    -0.150000       12.0110           0
     16419 MEMB     143      SLPC     H12R     HEL1     0.150000       1.00800           0
     16420 MEMB     143      SLPC     C213     CEL1    -0.150000       12.0110           0
     16421 MEMB     143      SLPC     H13R     HEL1     0.150000       1.00800           0
     16422 MEMB     143      SLPC     C214     CTL2    -0.180000       12.0110           0
     16423 MEMB     143      SLPC     H14R     HAL2     0.900000E-01   1.00800           0
     16424 MEMB     143      SLPC     H14S     HAL2     0.900000E-01   1.00800           0
     16425 MEMB     143      SLPC     C215     CTL2    -0.180000       12.0110           0
     16426 MEMB     143      SLPC     H15R     HAL2     0.900000E-01   1.00800           0
     16427 MEMB     143      SLPC     H15S     HAL2     0.900000E-01   1.00800           0
     16428 MEMB     143      SLPC     C216     CTL2    -0.180000       12.0110           0
     16429 MEMB     143      SLPC     H16R     HAL2     0.900000E-01   1.00800           0
     16430 MEMB     143      SLPC     H16S     HAL2     0.900000E-01   1.00800           0
     16431 MEMB     143      SLPC     C217     CTL2    -0.180000       12.0110           0
     16432 MEMB     143      SLPC     H17R     HAL2     0.900000E-01   1.00800           0
     16433 MEMB     143      SLPC     H17S     HAL2     0.900000E-01   1.00800           0
     16434 MEMB     143      SLPC     C218     CTL3    -0.270000       12.0110           0
     16435 MEMB     143      SLPC     H18R     HAL3     0.900000E-01   1.00800           0
     16436 MEMB     143      SLPC     H18S     HAL3     0.900000E-01   1.00800           0
     16437 MEMB     143      SLPC     H18T     HAL3     0.900000E-01   1.00800           0
     16438 MEMB     143      SLPC     C33      CTL2    -0.180000       12.0110           0
     16439 MEMB     143      SLPC     H3X      HAL2     0.900000E-01   1.00800           0
     16440 MEMB     143      SLPC     H3Y      HAL2     0.900000E-01   1.00800           0
     16441 MEMB     143      SLPC     C34      CTL2    -0.180000       12.0110           0
     16442 MEMB     143      SLPC     H4X      HAL2     0.900000E-01   1.00800           0
     16443 MEMB     143      SLPC     H4Y      HAL2     0.900000E-01   1.00800           0
     16444 MEMB     143      SLPC     C35      CTL2    -0.180000       12.0110           0
     16445 MEMB     143      SLPC     H5X      HAL2     0.900000E-01   1.00800           0
     16446 MEMB     143      SLPC     H5Y      HAL2     0.900000E-01   1.00800           0
     16447 MEMB     143      SLPC     C36      CTL2    -0.180000       12.0110           0
     16448 MEMB     143      SLPC     H6X      HAL2     0.900000E-01   1.00800           0
     16449 MEMB     143      SLPC     H6Y      HAL2     0.900000E-01   1.00800           0
     16450 MEMB     143      SLPC     C37      CTL2    -0.180000       12.0110           0
     16451 MEMB     143      SLPC     H7X      HAL2     0.900000E-01   1.00800           0
     16452 MEMB     143      SLPC     H7Y      HAL2     0.900000E-01   1.00800           0
     16453 MEMB     143      SLPC     C38      CTL2    -0.180000       12.0110           0
     16454 MEMB     143      SLPC     H8X      HAL2     0.900000E-01   1.00800           0
     16455 MEMB     143      SLPC     H8Y      HAL2     0.900000E-01   1.00800           0
     16456 MEMB     143      SLPC     C39      CTL2    -0.180000       12.0110           0
     16457 MEMB     143      SLPC     H9X      HAL2     0.900000E-01   1.00800           0
     16458 MEMB     143      SLPC     H9Y      HAL2     0.900000E-01   1.00800           0
     16459 MEMB     143      SLPC     C310     CTL2    -0.180000       12.0110           0
     16460 MEMB     143      SLPC     H10X     HAL2     0.900000E-01   1.00800           0
     16461 MEMB     143      SLPC     H10Y     HAL2     0.900000E-01   1.00800           0
     16462 MEMB     143      SLPC     C311     CTL2    -0.180000       12.0110           0
     16463 MEMB     143      SLPC     H11X     HAL2     0.900000E-01   1.00800           0
     16464 MEMB     143      SLPC     H11Y     HAL2     0.900000E-01   1.00800           0
     16465 MEMB     143      SLPC     C312     CTL2    -0.180000       12.0110           0
     16466 MEMB     143      SLPC     H12X     HAL2     0.900000E-01   1.00800           0
     16467 MEMB     143      SLPC     H12Y     HAL2     0.900000E-01   1.00800           0
     16468 MEMB     143      SLPC     C313     CTL2    -0.180000       12.0110           0
     16469 MEMB     143      SLPC     H13X     HAL2     0.900000E-01   1.00800           0
     16470 MEMB     143      SLPC     H13Y     HAL2     0.900000E-01   1.00800           0
     16471 MEMB     143      SLPC     C314     CTL2    -0.180000       12.0110           0
     16472 MEMB     143      SLPC     H14X     HAL2     0.900000E-01   1.00800           0
     16473 MEMB     143      SLPC     H14Y     HAL2     0.900000E-01   1.00800           0
     16474 MEMB     143      SLPC     C315     CTL2    -0.180000       12.0110           0
     16475 MEMB     143      SLPC     H15X     HAL2     0.900000E-01   1.00800           0
     16476 MEMB     143      SLPC     H15Y     HAL2     0.900000E-01   1.00800           0
     16477 MEMB     143      SLPC     C316     CTL2    -0.180000       12.0110           0
     16478 MEMB     143      SLPC     H16X     HAL2     0.900000E-01   1.00800           0
     16479 MEMB     143      SLPC     H16Y     HAL2     0.900000E-01   1.00800           0
     16480 MEMB     143      SLPC     C317     CTL2    -0.180000       12.0110           0
     16481 MEMB     143      SLPC     H17X     HAL2     0.900000E-01   1.00800           0
     16482 MEMB     143      SLPC     H17Y     HAL2     0.900000E-01   1.00800           0
     16483 MEMB     143      SLPC     C318     CTL3    -0.270000       12.0110           0
     16484 MEMB     143      SLPC     H18X     HAL3     0.900000E-01   1.00800           0
     16485 MEMB     143      SLPC     H18Y     HAL3     0.900000E-01   1.00800           0
     16486 MEMB     143      SLPC     H18Z     HAL3     0.900000E-01   1.00800           0
     16487 MEMB     144      CHL1     C3       CRL1     0.140000       12.0110           0
     16488 MEMB     144      CHL1     H3       HGA1     0.900000E-01   1.00800           0
     16489 MEMB     144      CHL1     O3       OHL     -0.660000       15.9994           0
     16490 MEMB     144      CHL1     H3'      HOL      0.430000       1.00800           0
     16491 MEMB     144      CHL1     C4       CRL2    -0.180000       12.0110           0
     16492 MEMB     144      CHL1     H4A      HGA2     0.900000E-01   1.00800           0
     16493 MEMB     144      CHL1     H4B      HGA2     0.900000E-01   1.00800           0
     16494 MEMB     144      CHL1     C5       CEL1      0.00000       12.0110           0
     16495 MEMB     144      CHL1     C6       CEL1    -0.150000       12.0110           0
     16496 MEMB     144      CHL1     H6       HEL1     0.150000       1.00800           0
     16497 MEMB     144      CHL1     C7       CRL2    -0.180000       12.0110           0
     16498 MEMB     144      CHL1     H7A      HGA2     0.900000E-01   1.00800           0
     16499 MEMB     144      CHL1     H7B      HGA2     0.900000E-01   1.00800           0
     16500 MEMB     144      CHL1     C8       CRL1    -0.900000E-01   12.0110           0
     16501 MEMB     144      CHL1     H8       HGA1     0.900000E-01   1.00800           0
     16502 MEMB     144      CHL1     C14      CRL1    -0.900000E-01   12.0110           0
     16503 MEMB     144      CHL1     H14      HGA1     0.900000E-01   1.00800           0
     16504 MEMB     144      CHL1     C15      CRL2    -0.180000       12.0110           0
     16505 MEMB     144      CHL1     H15A     HGA2     0.900000E-01   1.00800           0
     16506 MEMB     144      CHL1     H15B     HGA2     0.900000E-01   1.00800           0
     16507 MEMB     144      CHL1     C16      CRL2    -0.180000       12.0110           0
     16508 MEMB     144      CHL1     H16A     HGA2     0.900000E-01   1.00800           0
     16509 MEMB     144      CHL1     H16B     HGA2     0.900000E-01   1.00800           0
     16510 MEMB     144      CHL1     C17      CRL1    -0.900000E-01   12.0110           0
     16511 MEMB     144      CHL1     H17      HGA1     0.900000E-01   1.00800           0
     16512 MEMB     144      CHL1     C13      CRL1      0.00000       12.0110           0
     16513 MEMB     144      CHL1     C18      CTL3    -0.270000       12.0110           0
     16514 MEMB     144      CHL1     H18A     HAL3     0.900000E-01   1.00800           0
     16515 MEMB     144      CHL1     H18B     HAL3     0.900000E-01   1.00800           0
     16516 MEMB     144      CHL1     H18C     HAL3     0.900000E-01   1.00800           0
     16517 MEMB     144      CHL1     C12      CRL2    -0.180000       12.0110           0
     16518 MEMB     144      CHL1     H12A     HGA2     0.900000E-01   1.00800           0
     16519 MEMB     144      CHL1     H12B     HGA2     0.900000E-01   1.00800           0
     16520 MEMB     144      CHL1     C11      CRL2    -0.180000       12.0110           0
     16521 MEMB     144      CHL1     H11A     HGA2     0.900000E-01   1.00800           0
     16522 MEMB     144      CHL1     H11B     HGA2     0.900000E-01   1.00800           0
     16523 MEMB     144      CHL1     C9       CRL1    -0.900000E-01   12.0110           0
     16524 MEMB     144      CHL1     H9       HGA1     0.900000E-01   1.00800           0
     16525 MEMB     144      CHL1     C10      CRL1      0.00000       12.0110           0
     16526 MEMB     144      CHL1     C19      CTL3    -0.270000       12.0110           0
     16527 MEMB     144      CHL1     H19A     HAL3     0.900000E-01   1.00800           0
     16528 MEMB     144      CHL1     H19B     HAL3     0.900000E-01   1.00800           0
     16529 MEMB     144      CHL1     H19C     HAL3     0.900000E-01   1.00800           0
     16530 MEMB     144      CHL1     C1       CRL2    -0.180000       12.0110           0
     16531 MEMB     144      CHL1     H1A      HGA2     0.900000E-01   1.00800           0
     16532 MEMB     144      CHL1     H1B      HGA2     0.900000E-01   1.00800           0
     16533 MEMB     144      CHL1     C2       CRL2    -0.180000       12.0110           0
     16534 MEMB     144      CHL1     H2A      HGA2     0.900000E-01   1.00800           0
     16535 MEMB     144      CHL1     H2B      HGA2     0.900000E-01   1.00800           0
     16536 MEMB     144      CHL1     C20      CTL1    -0.900000E-01   12.0110           0
     16537 MEMB     144      CHL1     H20      HAL1     0.900000E-01   1.00800           0
     16538 MEMB     144      CHL1     C21      CTL3    -0.270000       12.0110           0
     16539 MEMB     144      CHL1     H21A     HAL3     0.900000E-01   1.00800           0
     16540 MEMB     144      CHL1     H21B     HAL3     0.900000E-01   1.00800           0
     16541 MEMB     144      CHL1     H21C     HAL3     0.900000E-01   1.00800           0
     16542 MEMB     144      CHL1     C22      CTL2    -0.180000       12.0110           0
     16543 MEMB     144      CHL1     H22A     HAL2     0.900000E-01   1.00800           0
     16544 MEMB     144      CHL1     H22B     HAL2     0.900000E-01   1.00800           0
     16545 MEMB     144      CHL1     C23      CTL2    -0.180000       12.0110           0
     16546 MEMB     144      CHL1     H23A     HAL2     0.900000E-01   1.00800           0
     16547 MEMB     144      CHL1     H23B     HAL2     0.900000E-01   1.00800           0
     16548 MEMB     144      CHL1     C24      CTL2    -0.180000       12.0110           0
     16549 MEMB     144      CHL1     H24A     HAL2     0.900000E-01   1.00800           0
     16550 MEMB     144      CHL1     H24B     HAL2     0.900000E-01   1.00800           0
     16551 MEMB     144      CHL1     C25      CTL1    -0.900000E-01   12.0110           0
     16552 MEMB     144      CHL1     H25      HAL1     0.900000E-01   1.00800           0
     16553 MEMB     144      CHL1     C26      CTL3    -0.270000       12.0110           0
     16554 MEMB     144      CHL1     H26A     HAL3     0.900000E-01   1.00800           0
     16555 MEMB     144      CHL1     H26B     HAL3     0.900000E-01   1.00800           0
     16556 MEMB     144      CHL1     H26C     HAL3     0.900000E-01   1.00800           0
     16557 MEMB     144      CHL1     C27      CTL3    -0.270000       12.0110           0
     16558 MEMB     144      CHL1     H27A     HAL3     0.900000E-01   1.00800           0
     16559 MEMB     144      CHL1     H27B     HAL3     0.900000E-01   1.00800           0
     16560 MEMB     144      CHL1     H27C     HAL3     0.900000E-01   1.00800           0
     16561 MEMB     145      SAPC     N        NTL     -0.600000       14.0070           0
     16562 MEMB     145      SAPC     C12      CTL2    -0.100000       12.0110           0
     16563 MEMB     145      SAPC     H12A     HL       0.250000       1.00800           0
     16564 MEMB     145      SAPC     H12B     HL       0.250000       1.00800           0
     16565 MEMB     145      SAPC     C13      CTL5    -0.350000       12.0110           0
     16566 MEMB     145      SAPC     H13A     HL       0.250000       1.00800           0
     16567 MEMB     145      SAPC     H13B     HL       0.250000       1.00800           0
     16568 MEMB     145      SAPC     H13C     HL       0.250000       1.00800           0
     16569 MEMB     145      SAPC     C14      CTL5    -0.350000       12.0110           0
     16570 MEMB     145      SAPC     H14A     HL       0.250000       1.00800           0
     16571 MEMB     145      SAPC     H14B     HL       0.250000       1.00800           0
     16572 MEMB     145      SAPC     H14C     HL       0.250000       1.00800           0
     16573 MEMB     145      SAPC     C15      CTL5    -0.350000       12.0110           0
     16574 MEMB     145      SAPC     H15A     HL       0.250000       1.00800           0
     16575 MEMB     145      SAPC     H15B     HL       0.250000       1.00800           0
     16576 MEMB     145      SAPC     H15C     HL       0.250000       1.00800           0
     16577 MEMB     145      SAPC     C11      CTL2    -0.800000E-01   12.0110           0
     16578 MEMB     145      SAPC     H11A     HAL2     0.900000E-01   1.00800           0
     16579 MEMB     145      SAPC     H11B     HAL2     0.900000E-01   1.00800           0
     16580 MEMB     145      SAPC     P        PL        1.50000       30.9740           0
     16581 MEMB     145      SAPC     O13      O2L     -0.780000       15.9994           0
     16582 MEMB     145      SAPC     O14      O2L     -0.780000       15.9994           0
     16583 MEMB     145      SAPC     O12      OSLP    -0.570000       15.9994           0
     16584 MEMB     145      SAPC     O11      OSLP    -0.570000       15.9994           0
     16585 MEMB     145      SAPC     C1       CTL2    -0.800000E-01   12.0110           0
     16586 MEMB     145      SAPC     HA       HAL2     0.900000E-01   1.00800           0
     16587 MEMB     145      SAPC     HB       HAL2     0.900000E-01   1.00800           0
     16588 MEMB     145      SAPC     C2       CTL1     0.170000       12.0110           0
     16589 MEMB     145      SAPC     HS       HAL1     0.900000E-01   1.00800           0
     16590 MEMB     145      SAPC     O21      OSL     -0.490000       15.9994           0
     16591 MEMB     145      SAPC     C21      CL       0.900000       12.0110           0
     16592 MEMB     145      SAPC     O22      OBL     -0.630000       15.9994           0
     16593 MEMB     145      SAPC     C22      CTL2    -0.220000       12.0110           0
     16594 MEMB     145      SAPC     H2R      HAL2     0.900000E-01   1.00800           0
     16595 MEMB     145      SAPC     H2S      HAL2     0.900000E-01   1.00800           0
     16596 MEMB     145      SAPC     C3       CTL2     0.800000E-01   12.0110           0
     16597 MEMB     145      SAPC     HX       HAL2     0.900000E-01   1.00800           0
     16598 MEMB     145      SAPC     HY       HAL2     0.900000E-01   1.00800           0
     16599 MEMB     145      SAPC     O31      OSL     -0.490000       15.9994           0
     16600 MEMB     145      SAPC     C31      CL       0.900000       12.0110           0
     16601 MEMB     145      SAPC     O32      OBL     -0.630000       15.9994           0
     16602 MEMB     145      SAPC     C32      CTL2    -0.220000       12.0110           0
     16603 MEMB     145      SAPC     H2X      HAL2     0.900000E-01   1.00800           0
     16604 MEMB     145      SAPC     H2Y      HAL2     0.900000E-01   1.00800           0
     16605 MEMB     145      SAPC     C23      CTL2    -0.180000       12.0110           0
     16606 MEMB     145      SAPC     H3R      HAL2     0.900000E-01   1.00800           0
     16607 MEMB     145      SAPC     H3S      HAL2     0.900000E-01   1.00800           0
     16608 MEMB     145      SAPC     C24      CTL2    -0.180000       12.0110           0
     16609 MEMB     145      SAPC     H4R      HAL2     0.900000E-01   1.00800           0
     16610 MEMB     145      SAPC     H4S      HAL2     0.900000E-01   1.00800           0
     16611 MEMB     145      SAPC     C25      CEL1    -0.150000       12.0110           0
     16612 MEMB     145      SAPC     H5R      HEL1     0.150000       1.00800           0
     16613 MEMB     145      SAPC     C26      CEL1    -0.150000       12.0110           0
     16614 MEMB     145      SAPC     H6R      HEL1     0.150000       1.00800           0
     16615 MEMB     145      SAPC     C27      CTL2    -0.180000       12.0110           0
     16616 MEMB     145      SAPC     H7R      HAL2     0.900000E-01   1.00800           0
     16617 MEMB     145      SAPC     H7S      HAL2     0.900000E-01   1.00800           0
     16618 MEMB     145      SAPC     C28      CEL1    -0.150000       12.0110           0
     16619 MEMB     145      SAPC     H8R      HEL1     0.150000       1.00800           0
     16620 MEMB     145      SAPC     C29      CEL1    -0.150000       12.0110           0
     16621 MEMB     145      SAPC     H9R      HEL1     0.150000       1.00800           0
     16622 MEMB     145      SAPC     C210     CTL2    -0.180000       12.0110           0
     16623 MEMB     145      SAPC     H10R     HAL2     0.900000E-01   1.00800           0
     16624 MEMB     145      SAPC     H10S     HAL2     0.900000E-01   1.00800           0
     16625 MEMB     145      SAPC     C211     CEL1    -0.150000       12.0110           0
     16626 MEMB     145      SAPC     H11R     HEL1     0.150000       1.00800           0
     16627 MEMB     145      SAPC     C212     CEL1    -0.150000       12.0110           0
     16628 MEMB     145      SAPC     H12R     HEL1     0.150000       1.00800           0
     16629 MEMB     145      SAPC     C213     CTL2    -0.180000       12.0110           0
     16630 MEMB     145      SAPC     H13R     HAL2     0.900000E-01   1.00800           0
     16631 MEMB     145      SAPC     H13S     HAL2     0.900000E-01   1.00800           0
     16632 MEMB     145      SAPC     C214     CEL1    -0.150000       12.0110           0
     16633 MEMB     145      SAPC     H14R     HEL1     0.150000       1.00800           0
     16634 MEMB     145      SAPC     C215     CEL1    -0.150000       12.0110           0
     16635 MEMB     145      SAPC     H15R     HEL1     0.150000       1.00800           0
     16636 MEMB     145      SAPC     C216     CTL2    -0.180000       12.0110           0
     16637 MEMB     145      SAPC     H16R     HAL2     0.900000E-01   1.00800           0
     16638 MEMB     145      SAPC     H16S     HAL2     0.900000E-01   1.00800           0
     16639 MEMB     145      SAPC     C217     CTL2    -0.180000       12.0110           0
     16640 MEMB     145      SAPC     H17R     HAL2     0.900000E-01   1.00800           0
     16641 MEMB     145      SAPC     H17S     HAL2     0.900000E-01   1.00800           0
     16642 MEMB     145      SAPC     C218     CTL2    -0.270000       12.0110           0
     16643 MEMB     145      SAPC     H18R     HAL2     0.900000E-01   1.00800           0
     16644 MEMB     145      SAPC     H18S     HAL2     0.900000E-01   1.00800           0
     16645 MEMB     145      SAPC     C219     CTL2    -0.180000       12.0110           0
     16646 MEMB     145      SAPC     H19R     HAL2     0.900000E-01   1.00800           0
     16647 MEMB     145      SAPC     H19S     HAL2     0.900000E-01   1.00800           0
     16648 MEMB     145      SAPC     C220     CTL3    -0.180000       12.0110           0
     16649 MEMB     145      SAPC     H20R     HAL3     0.900000E-01   1.00800           0
     16650 MEMB     145      SAPC     H20S     HAL3     0.900000E-01   1.00800           0
     16651 MEMB     145      SAPC     H20T     HAL3     0.900000E-01   1.00800           0
     16652 MEMB     145      SAPC     C33      CTL2    -0.180000       12.0110           0
     16653 MEMB     145      SAPC     H3X      HAL2     0.900000E-01   1.00800           0
     16654 MEMB     145      SAPC     H3Y      HAL2     0.900000E-01   1.00800           0
     16655 MEMB     145      SAPC     C34      CTL2    -0.180000       12.0110           0
     16656 MEMB     145      SAPC     H4X      HAL2     0.900000E-01   1.00800           0
     16657 MEMB     145      SAPC     H4Y      HAL2     0.900000E-01   1.00800           0
     16658 MEMB     145      SAPC     C35      CTL2    -0.180000       12.0110           0
     16659 MEMB     145      SAPC     H5X      HAL2     0.900000E-01   1.00800           0
     16660 MEMB     145      SAPC     H5Y      HAL2     0.900000E-01   1.00800           0
     16661 MEMB     145      SAPC     C36      CTL2    -0.180000       12.0110           0
     16662 MEMB     145      SAPC     H6X      HAL2     0.900000E-01   1.00800           0
     16663 MEMB     145      SAPC     H6Y      HAL2     0.900000E-01   1.00800           0
     16664 MEMB     145      SAPC     C37      CTL2    -0.180000       12.0110           0
     16665 MEMB     145      SAPC     H7X      HAL2     0.900000E-01   1.00800           0
     16666 MEMB     145      SAPC     H7Y      HAL2     0.900000E-01   1.00800           0
     16667 MEMB     145      SAPC     C38      CTL2    -0.180000       12.0110           0
     16668 MEMB     145      SAPC     H8X      HAL2     0.900000E-01   1.00800           0
     16669 MEMB     145      SAPC     H8Y      HAL2     0.900000E-01   1.00800           0
     16670 MEMB     145      SAPC     C39      CTL2    -0.180000       12.0110           0
     16671 MEMB     145      SAPC     H9X      HAL2     0.900000E-01   1.00800           0
     16672 MEMB     145      SAPC     H9Y      HAL2     0.900000E-01   1.00800           0
     16673 MEMB     145      SAPC     C310     CTL2    -0.180000       12.0110           0
     16674 MEMB     145      SAPC     H10X     HAL2     0.900000E-01   1.00800           0
     16675 MEMB     145      SAPC     H10Y     HAL2     0.900000E-01   1.00800           0
     16676 MEMB     145      SAPC     C311     CTL2    -0.180000       12.0110           0
     16677 MEMB     145      SAPC     H11X     HAL2     0.900000E-01   1.00800           0
     16678 MEMB     145      SAPC     H11Y     HAL2     0.900000E-01   1.00800           0
     16679 MEMB     145      SAPC     C312     CTL2    -0.180000       12.0110           0
     16680 MEMB     145      SAPC     H12X     HAL2     0.900000E-01   1.00800           0
     16681 MEMB     145      SAPC     H12Y     HAL2     0.900000E-01   1.00800           0
     16682 MEMB     145      SAPC     C313     CTL2    -0.180000       12.0110           0
     16683 MEMB     145      SAPC     H13X     HAL2     0.900000E-01   1.00800           0
     16684 MEMB     145      SAPC     H13Y     HAL2     0.900000E-01   1.00800           0
     16685 MEMB     145      SAPC     C314     CTL2    -0.180000       12.0110           0
     16686 MEMB     145      SAPC     H14X     HAL2     0.900000E-01   1.00800           0
     16687 MEMB     145      SAPC     H14Y     HAL2     0.900000E-01   1.00800           0
     16688 MEMB     145      SAPC     C315     CTL2    -0.180000       12.0110           0
     16689 MEMB     145      SAPC     H15X     HAL2     0.900000E-01   1.00800           0
     16690 MEMB     145      SAPC     H15Y     HAL2     0.900000E-01   1.00800           0
     16691 MEMB     145      SAPC     C316     CTL2    -0.180000       12.0110           0
     16692 MEMB     145      SAPC     H16X     HAL2     0.900000E-01   1.00800           0
     16693 MEMB     145      SAPC     H16Y     HAL2     0.900000E-01   1.00800           0
     16694 MEMB     145      SAPC     C317     CTL2    -0.180000       12.0110           0
     16695 MEMB     145      SAPC     H17X     HAL2     0.900000E-01   1.00800           0
     16696 MEMB     145      SAPC     H17Y     HAL2     0.900000E-01   1.00800           0
     16697 MEMB     145      SAPC     C318     CTL3    -0.270000       12.0110           0
     16698 MEMB     145      SAPC     H18X     HAL3     0.900000E-01   1.00800           0
     16699 MEMB     145      SAPC     H18Y     HAL3     0.900000E-01   1.00800           0
     16700 MEMB     145      SAPC     H18Z     HAL3     0.900000E-01   1.00800           0
     16701 MEMB     146      OSM      N        NTL     -0.600000       14.0070           0
     16702 MEMB     146      OSM      C15      CTL5    -0.350000       12.0110           0
     16703 MEMB     146      OSM      H15A     HL       0.250000       1.00800           0
     16704 MEMB     146      OSM      H15B     HL       0.250000       1.00800           0
     16705 MEMB     146      OSM      H15C     HL       0.250000       1.00800           0
     16706 MEMB     146      OSM      C14      CTL5    -0.350000       12.0110           0
     16707 MEMB     146      OSM      H14A     HL       0.250000       1.00800           0
     16708 MEMB     146      OSM      H14B     HL       0.250000       1.00800           0
     16709 MEMB     146      OSM      H14C     HL       0.250000       1.00800           0
     16710 MEMB     146      OSM      C13      CTL5    -0.350000       12.0110           0
     16711 MEMB     146      OSM      H13A     HL       0.250000       1.00800           0
     16712 MEMB     146      OSM      H13B     HL       0.250000       1.00800           0
     16713 MEMB     146      OSM      H13C     HL       0.250000       1.00800           0
     16714 MEMB     146      OSM      C12      CTL2    -0.100000       12.0110           0
     16715 MEMB     146      OSM      H12A     HL       0.250000       1.00800           0
     16716 MEMB     146      OSM      H12B     HL       0.250000       1.00800           0
     16717 MEMB     146      OSM      C11      CTL2    -0.800000E-01   12.0110           0
     16718 MEMB     146      OSM      H11A     HAL2     0.900000E-01   1.00800           0
     16719 MEMB     146      OSM      H11B     HAL2     0.900000E-01   1.00800           0
     16720 MEMB     146      OSM      P        PL        1.50000       30.9740           0
     16721 MEMB     146      OSM      O13      O2L     -0.780000       15.9994           0
     16722 MEMB     146      OSM      O14      O2L     -0.780000       15.9994           0
     16723 MEMB     146      OSM      O11      OSLP    -0.570000       15.9994           0
     16724 MEMB     146      OSM      O12      OSLP    -0.570000       15.9994           0
     16725 MEMB     146      OSM      C1S      CTL2    -0.800000E-01   12.0110           0
     16726 MEMB     146      OSM      H1S      HAL2     0.900000E-01   1.00800           0
     16727 MEMB     146      OSM      H1T      HAL2     0.900000E-01   1.00800           0
     16728 MEMB     146      OSM      NF       NHL     -0.700000       14.0070           0
     16729 MEMB     146      OSM      HNF      H        0.350000       1.00800           0
     16730 MEMB     146      OSM      C2S      CTL1     0.300000       12.0110           0
     16731 MEMB     146      OSM      H2S      HAL1     0.500000E-01   1.00800           0
     16732 MEMB     146      OSM      C3S      CTO1     0.500000       12.0110           0
     16733 MEMB     146      OSM      H3S      HAL1    -0.110000       1.00800           0
     16734 MEMB     146      OSM      O3       OHL     -0.690000       15.9994           0
     16735 MEMB     146      OSM      HO3      HOL      0.300000       1.00800           0
     16736 MEMB     146      OSM      C4S      CEL3    -0.150000       12.0110           0
     16737 MEMB     146      OSM      H4S      HEL1     0.150000       1.00800           0
     16738 MEMB     146      OSM      C5S      CEL3    -0.150000       12.0110           0
     16739 MEMB     146      OSM      H5S      HEL1     0.150000       1.00800           0
     16740 MEMB     146      OSM      C6S      CTL2    -0.180000       12.0110           0
     16741 MEMB     146      OSM      H6S      HAL2     0.900000E-01   1.00800           0
     16742 MEMB     146      OSM      H6T      HAL2     0.900000E-01   1.00800           0
     16743 MEMB     146      OSM      C7S      CTL2    -0.180000       12.0110           0
     16744 MEMB     146      OSM      H7S      HAL2     0.900000E-01   1.00800           0
     16745 MEMB     146      OSM      H7T      HAL2     0.900000E-01   1.00800           0
     16746 MEMB     146      OSM      C8S      CTL2    -0.180000       12.0110           0
     16747 MEMB     146      OSM      H8S      HAL2     0.900000E-01   1.00800           0
     16748 MEMB     146      OSM      H8T      HAL2     0.900000E-01   1.00800           0
     16749 MEMB     146      OSM      C9S      CTL2    -0.180000       12.0110           0
     16750 MEMB     146      OSM      H9S      HAL2     0.900000E-01   1.00800           0
     16751 MEMB     146      OSM      H9T      HAL2     0.900000E-01   1.00800           0
     16752 MEMB     146      OSM      C10S     CTL2    -0.180000       12.0110           0
     16753 MEMB     146      OSM      H10S     HAL2     0.900000E-01   1.00800           0
     16754 MEMB     146      OSM      H10T     HAL2     0.900000E-01   1.00800           0
     16755 MEMB     146      OSM      C11S     CTL2    -0.180000       12.0110           0
     16756 MEMB     146      OSM      H11S     HAL2     0.900000E-01   1.00800           0
     16757 MEMB     146      OSM      H11T     HAL2     0.900000E-01   1.00800           0
     16758 MEMB     146      OSM      C12S     CTL2    -0.180000       12.0110           0
     16759 MEMB     146      OSM      H12S     HAL2     0.900000E-01   1.00800           0
     16760 MEMB     146      OSM      H12T     HAL2     0.900000E-01   1.00800           0
     16761 MEMB     146      OSM      C13S     CTL2    -0.180000       12.0110           0
     16762 MEMB     146      OSM      H13S     HAL2     0.900000E-01   1.00800           0
     16763 MEMB     146      OSM      H13T     HAL2     0.900000E-01   1.00800           0
     16764 MEMB     146      OSM      C14S     CTL2    -0.180000       12.0110           0
     16765 MEMB     146      OSM      H14S     HAL2     0.900000E-01   1.00800           0
     16766 MEMB     146      OSM      H14T     HAL2     0.900000E-01   1.00800           0
     16767 MEMB     146      OSM      C15S     CTL2    -0.180000       12.0110           0
     16768 MEMB     146      OSM      H15S     HAL2     0.900000E-01   1.00800           0
     16769 MEMB     146      OSM      H15T     HAL2     0.900000E-01   1.00800           0
     16770 MEMB     146      OSM      C16S     CTL2    -0.180000       12.0110           0
     16771 MEMB     146      OSM      H16S     HAL2     0.900000E-01   1.00800           0
     16772 MEMB     146      OSM      H16T     HAL2     0.900000E-01   1.00800           0
     16773 MEMB     146      OSM      C17S     CTL2    -0.180000       12.0110           0
     16774 MEMB     146      OSM      H17S     HAL2     0.900000E-01   1.00800           0
     16775 MEMB     146      OSM      H17T     HAL2     0.900000E-01   1.00800           0
     16776 MEMB     146      OSM      C18S     CTL3    -0.270000       12.0110           0
     16777 MEMB     146      OSM      H18S     HAL3     0.900000E-01   1.00800           0
     16778 MEMB     146      OSM      H18T     HAL3     0.900000E-01   1.00800           0
     16779 MEMB     146      OSM      H18U     HAL3     0.900000E-01   1.00800           0
     16780 MEMB     146      OSM      C1F      C        0.550000       12.0110           0
     16781 MEMB     146      OSM      OF       O       -0.600000       15.9994           0
     16782 MEMB     146      OSM      C2F      CTL2    -0.700000E-01   12.0110           0
     16783 MEMB     146      OSM      H2F      HAL2     0.600000E-01   1.00800           0
     16784 MEMB     146      OSM      H2G      HAL2     0.600000E-01   1.00800           0
     16785 MEMB     146      OSM      C3F      CTL2    -0.180000       12.0110           0
     16786 MEMB     146      OSM      H3F      HAL2     0.900000E-01   1.00800           0
     16787 MEMB     146      OSM      H3G      HAL2     0.900000E-01   1.00800           0
     16788 MEMB     146      OSM      C4F      CTL2    -0.180000       12.0110           0
     16789 MEMB     146      OSM      H4F      HAL2     0.900000E-01   1.00800           0
     16790 MEMB     146      OSM      H4G      HAL2     0.900000E-01   1.00800           0
     16791 MEMB     146      OSM      C5F      CTL2    -0.180000       12.0110           0
     16792 MEMB     146      OSM      H5F      HAL2     0.900000E-01   1.00800           0
     16793 MEMB     146      OSM      H5G      HAL2     0.900000E-01   1.00800           0
     16794 MEMB     146      OSM      C6F      CTL2    -0.180000       12.0110           0
     16795 MEMB     146      OSM      H6F      HAL2     0.900000E-01   1.00800           0
     16796 MEMB     146      OSM      H6G      HAL2     0.900000E-01   1.00800           0
     16797 MEMB     146      OSM      C7F      CTL2    -0.180000       12.0110           0
     16798 MEMB     146      OSM      H7F      HAL2     0.900000E-01   1.00800           0
     16799 MEMB     146      OSM      H7G      HAL2     0.900000E-01   1.00800           0
     16800 MEMB     146      OSM      C8F      CTL2    -0.180000       12.0110           0
     16801 MEMB     146      OSM      H8F      HAL2     0.900000E-01   1.00800           0
     16802 MEMB     146      OSM      H8G      HAL2     0.900000E-01   1.00800           0
     16803 MEMB     146      OSM      C9F      CEL1    -0.150000       12.0110           0
     16804 MEMB     146      OSM      H9F      HEL1     0.150000       1.00800           0
     16805 MEMB     146      OSM      C10F     CEL1    -0.150000       12.0110           0
     16806 MEMB     146      OSM      H10F     HEL1     0.150000       1.00800           0
     16807 MEMB     146      OSM      C11F     CTL2    -0.180000       12.0110           0
     16808 MEMB     146      OSM      H11F     HAL2     0.900000E-01   1.00800           0
     16809 MEMB     146      OSM      H11G     HAL2     0.900000E-01   1.00800           0
     16810 MEMB     146      OSM      C12F     CTL2    -0.180000       12.0110           0
     16811 MEMB     146      OSM      H12F     HAL2     0.900000E-01   1.00800           0
     16812 MEMB     146      OSM      H12G     HAL2     0.900000E-01   1.00800           0
     16813 MEMB     146      OSM      C13F     CTL2    -0.180000       12.0110           0
     16814 MEMB     146      OSM      H13F     HAL2     0.900000E-01   1.00800           0
     16815 MEMB     146      OSM      H13G     HAL2     0.900000E-01   1.00800           0
     16816 MEMB     146      OSM      C14F     CTL2    -0.180000       12.0110           0
     16817 MEMB     146      OSM      H14F     HAL2     0.900000E-01   1.00800           0
     16818 MEMB     146      OSM      H14G     HAL2     0.900000E-01   1.00800           0
     16819 MEMB     146      OSM      C15F     CTL2    -0.180000       12.0110           0
     16820 MEMB     146      OSM      H15F     HAL2     0.900000E-01   1.00800           0
     16821 MEMB     146      OSM      H15G     HAL2     0.900000E-01   1.00800           0
     16822 MEMB     146      OSM      C16F     CTL2    -0.180000       12.0110           0
     16823 MEMB     146      OSM      H16F     HAL2     0.900000E-01   1.00800           0
     16824 MEMB     146      OSM      H16G     HAL2     0.900000E-01   1.00800           0
     16825 MEMB     146      OSM      C17F     CTL2    -0.180000       12.0110           0
     16826 MEMB     146      OSM      H17F     HAL2     0.900000E-01   1.00800           0
     16827 MEMB     146      OSM      H17G     HAL2     0.900000E-01   1.00800           0
     16828 MEMB     146      OSM      C18F     CTL3    -0.270000       12.0110           0
     16829 MEMB     146      OSM      H18F     HAL3     0.900000E-01   1.00800           0
     16830 MEMB     146      OSM      H18G     HAL3     0.900000E-01   1.00800           0
     16831 MEMB     146      OSM      H18H     HAL3     0.900000E-01   1.00800           0
     16832 MEMB     147      CHL1     C3       CRL1     0.140000       12.0110           0
     16833 MEMB     147      CHL1     H3       HGA1     0.900000E-01   1.00800           0
     16834 MEMB     147      CHL1     O3       OHL     -0.660000       15.9994           0
     16835 MEMB     147      CHL1     H3'      HOL      0.430000       1.00800           0
     16836 MEMB     147      CHL1     C4       CRL2    -0.180000       12.0110           0
     16837 MEMB     147      CHL1     H4A      HGA2     0.900000E-01   1.00800           0
     16838 MEMB     147      CHL1     H4B      HGA2     0.900000E-01   1.00800           0
     16839 MEMB     147      CHL1     C5       CEL1      0.00000       12.0110           0
     16840 MEMB     147      CHL1     C6       CEL1    -0.150000       12.0110           0
     16841 MEMB     147      CHL1     H6       HEL1     0.150000       1.00800           0
     16842 MEMB     147      CHL1     C7       CRL2    -0.180000       12.0110           0
     16843 MEMB     147      CHL1     H7A      HGA2     0.900000E-01   1.00800           0
     16844 MEMB     147      CHL1     H7B      HGA2     0.900000E-01   1.00800           0
     16845 MEMB     147      CHL1     C8       CRL1    -0.900000E-01   12.0110           0
     16846 MEMB     147      CHL1     H8       HGA1     0.900000E-01   1.00800           0
     16847 MEMB     147      CHL1     C14      CRL1    -0.900000E-01   12.0110           0
     16848 MEMB     147      CHL1     H14      HGA1     0.900000E-01   1.00800           0
     16849 MEMB     147      CHL1     C15      CRL2    -0.180000       12.0110           0
     16850 MEMB     147      CHL1     H15A     HGA2     0.900000E-01   1.00800           0
     16851 MEMB     147      CHL1     H15B     HGA2     0.900000E-01   1.00800           0
     16852 MEMB     147      CHL1     C16      CRL2    -0.180000       12.0110           0
     16853 MEMB     147      CHL1     H16A     HGA2     0.900000E-01   1.00800           0
     16854 MEMB     147      CHL1     H16B     HGA2     0.900000E-01   1.00800           0
     16855 MEMB     147      CHL1     C17      CRL1    -0.900000E-01   12.0110           0
     16856 MEMB     147      CHL1     H17      HGA1     0.900000E-01   1.00800           0
     16857 MEMB     147      CHL1     C13      CRL1      0.00000       12.0110           0
     16858 MEMB     147      CHL1     C18      CTL3    -0.270000       12.0110           0
     16859 MEMB     147      CHL1     H18A     HAL3     0.900000E-01   1.00800           0
     16860 MEMB     147      CHL1     H18B     HAL3     0.900000E-01   1.00800           0
     16861 MEMB     147      CHL1     H18C     HAL3     0.900000E-01   1.00800           0
     16862 MEMB     147      CHL1     C12      CRL2    -0.180000       12.0110           0
     16863 MEMB     147      CHL1     H12A     HGA2     0.900000E-01   1.00800           0
     16864 MEMB     147      CHL1     H12B     HGA2     0.900000E-01   1.00800           0
     16865 MEMB     147      CHL1     C11      CRL2    -0.180000       12.0110           0
     16866 MEMB     147      CHL1     H11A     HGA2     0.900000E-01   1.00800           0
     16867 MEMB     147      CHL1     H11B     HGA2     0.900000E-01   1.00800           0
     16868 MEMB     147      CHL1     C9       CRL1    -0.900000E-01   12.0110           0
     16869 MEMB     147      CHL1     H9       HGA1     0.900000E-01   1.00800           0
     16870 MEMB     147      CHL1     C10      CRL1      0.00000       12.0110           0
     16871 MEMB     147      CHL1     C19      CTL3    -0.270000       12.0110           0
     16872 MEMB     147      CHL1     H19A     HAL3     0.900000E-01   1.00800           0
     16873 MEMB     147      CHL1     H19B     HAL3     0.900000E-01   1.00800           0
     16874 MEMB     147      CHL1     H19C     HAL3     0.900000E-01   1.00800           0
     16875 MEMB     147      CHL1     C1       CRL2    -0.180000       12.0110           0
     16876 MEMB     147      CHL1     H1A      HGA2     0.900000E-01   1.00800           0
     16877 MEMB     147      CHL1     H1B      HGA2     0.900000E-01   1.00800           0
     16878 MEMB     147      CHL1     C2       CRL2    -0.180000       12.0110           0
     16879 MEMB     147      CHL1     H2A      HGA2     0.900000E-01   1.00800           0
     16880 MEMB     147      CHL1     H2B      HGA2     0.900000E-01   1.00800           0
     16881 MEMB     147      CHL1     C20      CTL1    -0.900000E-01   12.0110           0
     16882 MEMB     147      CHL1     H20      HAL1     0.900000E-01   1.00800           0
     16883 MEMB     147      CHL1     C21      CTL3    -0.270000       12.0110           0
     16884 MEMB     147      CHL1     H21A     HAL3     0.900000E-01   1.00800           0
     16885 MEMB     147      CHL1     H21B     HAL3     0.900000E-01   1.00800           0
     16886 MEMB     147      CHL1     H21C     HAL3     0.900000E-01   1.00800           0
     16887 MEMB     147      CHL1     C22      CTL2    -0.180000       12.0110           0
     16888 MEMB     147      CHL1     H22A     HAL2     0.900000E-01   1.00800           0
     16889 MEMB     147      CHL1     H22B     HAL2     0.900000E-01   1.00800           0
     16890 MEMB     147      CHL1     C23      CTL2    -0.180000       12.0110           0
     16891 MEMB     147      CHL1     H23A     HAL2     0.900000E-01   1.00800           0
     16892 MEMB     147      CHL1     H23B     HAL2     0.900000E-01   1.00800           0
     16893 MEMB     147      CHL1     C24      CTL2    -0.180000       12.0110           0
     16894 MEMB     147      CHL1     H24A     HAL2     0.900000E-01   1.00800           0
     16895 MEMB     147      CHL1     H24B     HAL2     0.900000E-01   1.00800           0
     16896 MEMB     147      CHL1     C25      CTL1    -0.900000E-01   12.0110           0
     16897 MEMB     147      CHL1     H25      HAL1     0.900000E-01   1.00800           0
     16898 MEMB     147      CHL1     C26      CTL3    -0.270000       12.0110           0
     16899 MEMB     147      CHL1     H26A     HAL3     0.900000E-01   1.00800           0
     16900 MEMB     147      CHL1     H26B     HAL3     0.900000E-01   1.00800           0
     16901 MEMB     147      CHL1     H26C     HAL3     0.900000E-01   1.00800           0
     16902 MEMB     147      CHL1     C27      CTL3    -0.270000       12.0110           0
     16903 MEMB     147      CHL1     H27A     HAL3     0.900000E-01   1.00800           0
     16904 MEMB     147      CHL1     H27B     HAL3     0.900000E-01   1.00800           0
     16905 MEMB     147      CHL1     H27C     HAL3     0.900000E-01   1.00800           0
     16906 MEMB     148      OSM      N        NTL     -0.600000       14.0070           0
     16907 MEMB     148      OSM      C15      CTL5    -0.350000       12.0110           0
     16908 MEMB     148      OSM      H15A     HL       0.250000       1.00800           0
     16909 MEMB     148      OSM      H15B     HL       0.250000       1.00800           0
     16910 MEMB     148      OSM      H15C     HL       0.250000       1.00800           0
     16911 MEMB     148      OSM      C14      CTL5    -0.350000       12.0110           0
     16912 MEMB     148      OSM      H14A     HL       0.250000       1.00800           0
     16913 MEMB     148      OSM      H14B     HL       0.250000       1.00800           0
     16914 MEMB     148      OSM      H14C     HL       0.250000       1.00800           0
     16915 MEMB     148      OSM      C13      CTL5    -0.350000       12.0110           0
     16916 MEMB     148      OSM      H13A     HL       0.250000       1.00800           0
     16917 MEMB     148      OSM      H13B     HL       0.250000       1.00800           0
     16918 MEMB     148      OSM      H13C     HL       0.250000       1.00800           0
     16919 MEMB     148      OSM      C12      CTL2    -0.100000       12.0110           0
     16920 MEMB     148      OSM      H12A     HL       0.250000       1.00800           0
     16921 MEMB     148      OSM      H12B     HL       0.250000       1.00800           0
     16922 MEMB     148      OSM      C11      CTL2    -0.800000E-01   12.0110           0
     16923 MEMB     148      OSM      H11A     HAL2     0.900000E-01   1.00800           0
     16924 MEMB     148      OSM      H11B     HAL2     0.900000E-01   1.00800           0
     16925 MEMB     148      OSM      P        PL        1.50000       30.9740           0
     16926 MEMB     148      OSM      O13      O2L     -0.780000       15.9994           0
     16927 MEMB     148      OSM      O14      O2L     -0.780000       15.9994           0
     16928 MEMB     148      OSM      O11      OSLP    -0.570000       15.9994           0
     16929 MEMB     148      OSM      O12      OSLP    -0.570000       15.9994           0
     16930 MEMB     148      OSM      C1S      CTL2    -0.800000E-01   12.0110           0
     16931 MEMB     148      OSM      H1S      HAL2     0.900000E-01   1.00800           0
     16932 MEMB     148      OSM      H1T      HAL2     0.900000E-01   1.00800           0
     16933 MEMB     148      OSM      NF       NHL     -0.700000       14.0070           0
     16934 MEMB     148      OSM      HNF      H        0.350000       1.00800           0
     16935 MEMB     148      OSM      C2S      CTL1     0.300000       12.0110           0
     16936 MEMB     148      OSM      H2S      HAL1     0.500000E-01   1.00800           0
     16937 MEMB     148      OSM      C3S      CTO1     0.500000       12.0110           0
     16938 MEMB     148      OSM      H3S      HAL1    -0.110000       1.00800           0
     16939 MEMB     148      OSM      O3       OHL     -0.690000       15.9994           0
     16940 MEMB     148      OSM      HO3      HOL      0.300000       1.00800           0
     16941 MEMB     148      OSM      C4S      CEL3    -0.150000       12.0110           0
     16942 MEMB     148      OSM      H4S      HEL1     0.150000       1.00800           0
     16943 MEMB     148      OSM      C5S      CEL3    -0.150000       12.0110           0
     16944 MEMB     148      OSM      H5S      HEL1     0.150000       1.00800           0
     16945 MEMB     148      OSM      C6S      CTL2    -0.180000       12.0110           0
     16946 MEMB     148      OSM      H6S      HAL2     0.900000E-01   1.00800           0
     16947 MEMB     148      OSM      H6T      HAL2     0.900000E-01   1.00800           0
     16948 MEMB     148      OSM      C7S      CTL2    -0.180000       12.0110           0
     16949 MEMB     148      OSM      H7S      HAL2     0.900000E-01   1.00800           0
     16950 MEMB     148      OSM      H7T      HAL2     0.900000E-01   1.00800           0
     16951 MEMB     148      OSM      C8S      CTL2    -0.180000       12.0110           0
     16952 MEMB     148      OSM      H8S      HAL2     0.900000E-01   1.00800           0
     16953 MEMB     148      OSM      H8T      HAL2     0.900000E-01   1.00800           0
     16954 MEMB     148      OSM      C9S      CTL2    -0.180000       12.0110           0
     16955 MEMB     148      OSM      H9S      HAL2     0.900000E-01   1.00800           0
     16956 MEMB     148      OSM      H9T      HAL2     0.900000E-01   1.00800           0
     16957 MEMB     148      OSM      C10S     CTL2    -0.180000       12.0110           0
     16958 MEMB     148      OSM      H10S     HAL2     0.900000E-01   1.00800           0
     16959 MEMB     148      OSM      H10T     HAL2     0.900000E-01   1.00800           0
     16960 MEMB     148      OSM      C11S     CTL2    -0.180000       12.0110           0
     16961 MEMB     148      OSM      H11S     HAL2     0.900000E-01   1.00800           0
     16962 MEMB     148      OSM      H11T     HAL2     0.900000E-01   1.00800           0
     16963 MEMB     148      OSM      C12S     CTL2    -0.180000       12.0110           0
     16964 MEMB     148      OSM      H12S     HAL2     0.900000E-01   1.00800           0
     16965 MEMB     148      OSM      H12T     HAL2     0.900000E-01   1.00800           0
     16966 MEMB     148      OSM      C13S     CTL2    -0.180000       12.0110           0
     16967 MEMB     148      OSM      H13S     HAL2     0.900000E-01   1.00800           0
     16968 MEMB     148      OSM      H13T     HAL2     0.900000E-01   1.00800           0
     16969 MEMB     148      OSM      C14S     CTL2    -0.180000       12.0110           0
     16970 MEMB     148      OSM      H14S     HAL2     0.900000E-01   1.00800           0
     16971 MEMB     148      OSM      H14T     HAL2     0.900000E-01   1.00800           0
     16972 MEMB     148      OSM      C15S     CTL2    -0.180000       12.0110           0
     16973 MEMB     148      OSM      H15S     HAL2     0.900000E-01   1.00800           0
     16974 MEMB     148      OSM      H15T     HAL2     0.900000E-01   1.00800           0
     16975 MEMB     148      OSM      C16S     CTL2    -0.180000       12.0110           0
     16976 MEMB     148      OSM      H16S     HAL2     0.900000E-01   1.00800           0
     16977 MEMB     148      OSM      H16T     HAL2     0.900000E-01   1.00800           0
     16978 MEMB     148      OSM      C17S     CTL2    -0.180000       12.0110           0
     16979 MEMB     148      OSM      H17S     HAL2     0.900000E-01   1.00800           0
     16980 MEMB     148      OSM      H17T     HAL2     0.900000E-01   1.00800           0
     16981 MEMB     148      OSM      C18S     CTL3    -0.270000       12.0110           0
     16982 MEMB     148      OSM      H18S     HAL3     0.900000E-01   1.00800           0
     16983 MEMB     148      OSM      H18T     HAL3     0.900000E-01   1.00800           0
     16984 MEMB     148      OSM      H18U     HAL3     0.900000E-01   1.00800           0
     16985 MEMB     148      OSM      C1F      C        0.550000       12.0110           0
     16986 MEMB     148      OSM      OF       O       -0.600000       15.9994           0
     16987 MEMB     148      OSM      C2F      CTL2    -0.700000E-01   12.0110           0
     16988 MEMB     148      OSM      H2F      HAL2     0.600000E-01   1.00800           0
     16989 MEMB     148      OSM      H2G      HAL2     0.600000E-01   1.00800           0
     16990 MEMB     148      OSM      C3F      CTL2    -0.180000       12.0110           0
     16991 MEMB     148      OSM      H3F      HAL2     0.900000E-01   1.00800           0
     16992 MEMB     148      OSM      H3G      HAL2     0.900000E-01   1.00800           0
     16993 MEMB     148      OSM      C4F      CTL2    -0.180000       12.0110           0
     16994 MEMB     148      OSM      H4F      HAL2     0.900000E-01   1.00800           0
     16995 MEMB     148      OSM      H4G      HAL2     0.900000E-01   1.00800           0
     16996 MEMB     148      OSM      C5F      CTL2    -0.180000       12.0110           0
     16997 MEMB     148      OSM      H5F      HAL2     0.900000E-01   1.00800           0
     16998 MEMB     148      OSM      H5G      HAL2     0.900000E-01   1.00800           0
     16999 MEMB     148      OSM      C6F      CTL2    -0.180000       12.0110           0
     17000 MEMB     148      OSM      H6F      HAL2     0.900000E-01   1.00800           0
     17001 MEMB     148      OSM      H6G      HAL2     0.900000E-01   1.00800           0
     17002 MEMB     148      OSM      C7F      CTL2    -0.180000       12.0110           0
     17003 MEMB     148      OSM      H7F      HAL2     0.900000E-01   1.00800           0
     17004 MEMB     148      OSM      H7G      HAL2     0.900000E-01   1.00800           0
     17005 MEMB     148      OSM      C8F      CTL2    -0.180000       12.0110           0
     17006 MEMB     148      OSM      H8F      HAL2     0.900000E-01   1.00800           0
     17007 MEMB     148      OSM      H8G      HAL2     0.900000E-01   1.00800           0
     17008 MEMB     148      OSM      C9F      CEL1    -0.150000       12.0110           0
     17009 MEMB     148      OSM      H9F      HEL1     0.150000       1.00800           0
     17010 MEMB     148      OSM      C10F     CEL1    -0.150000       12.0110           0
     17011 MEMB     148      OSM      H10F     HEL1     0.150000       1.00800           0
     17012 MEMB     148      OSM      C11F     CTL2    -0.180000       12.0110           0
     17013 MEMB     148      OSM      H11F     HAL2     0.900000E-01   1.00800           0
     17014 MEMB     148      OSM      H11G     HAL2     0.900000E-01   1.00800           0
     17015 MEMB     148      OSM      C12F     CTL2    -0.180000       12.0110           0
     17016 MEMB     148      OSM      H12F     HAL2     0.900000E-01   1.00800           0
     17017 MEMB     148      OSM      H12G     HAL2     0.900000E-01   1.00800           0
     17018 MEMB     148      OSM      C13F     CTL2    -0.180000       12.0110           0
     17019 MEMB     148      OSM      H13F     HAL2     0.900000E-01   1.00800           0
     17020 MEMB     148      OSM      H13G     HAL2     0.900000E-01   1.00800           0
     17021 MEMB     148      OSM      C14F     CTL2    -0.180000       12.0110           0
     17022 MEMB     148      OSM      H14F     HAL2     0.900000E-01   1.00800           0
     17023 MEMB     148      OSM      H14G     HAL2     0.900000E-01   1.00800           0
     17024 MEMB     148      OSM      C15F     CTL2    -0.180000       12.0110           0
     17025 MEMB     148      OSM      H15F     HAL2     0.900000E-01   1.00800           0
     17026 MEMB     148      OSM      H15G     HAL2     0.900000E-01   1.00800           0
     17027 MEMB     148      OSM      C16F     CTL2    -0.180000       12.0110           0
     17028 MEMB     148      OSM      H16F     HAL2     0.900000E-01   1.00800           0
     17029 MEMB     148      OSM      H16G     HAL2     0.900000E-01   1.00800           0
     17030 MEMB     148      OSM      C17F     CTL2    -0.180000       12.0110           0
     17031 MEMB     148      OSM      H17F     HAL2     0.900000E-01   1.00800           0
     17032 MEMB     148      OSM      H17G     HAL2     0.900000E-01   1.00800           0
     17033 MEMB     148      OSM      C18F     CTL3    -0.270000       12.0110           0
     17034 MEMB     148      OSM      H18F     HAL3     0.900000E-01   1.00800           0
     17035 MEMB     148      OSM      H18G     HAL3     0.900000E-01   1.00800           0
     17036 MEMB     148      OSM      H18H     HAL3     0.900000E-01   1.00800           0
     17037 MEMB     149      SAPE     N        NH3L    -0.300000       14.0070           0
     17038 MEMB     149      SAPE     HN1      HCL      0.330000       1.00800           0
     17039 MEMB     149      SAPE     HN2      HCL      0.330000       1.00800           0
     17040 MEMB     149      SAPE     HN3      HCL      0.330000       1.00800           0
     17041 MEMB     149      SAPE     C12      CTL2     0.130000       12.0110           0
     17042 MEMB     149      SAPE     H12A     HAL2     0.900000E-01   1.00800           0
     17043 MEMB     149      SAPE     H12B     HAL2     0.900000E-01   1.00800           0
     17044 MEMB     149      SAPE     C11      CTL2    -0.800000E-01   12.0110           0
     17045 MEMB     149      SAPE     H11A     HAL2     0.900000E-01   1.00800           0
     17046 MEMB     149      SAPE     H11B     HAL2     0.900000E-01   1.00800           0
     17047 MEMB     149      SAPE     P        PL        1.50000       30.9740           0
     17048 MEMB     149      SAPE     O13      O2L     -0.780000       15.9994           0
     17049 MEMB     149      SAPE     O14      O2L     -0.780000       15.9994           0
     17050 MEMB     149      SAPE     O12      OSLP    -0.570000       15.9994           0
     17051 MEMB     149      SAPE     O11      OSLP    -0.570000       15.9994           0
     17052 MEMB     149      SAPE     C1       CTL2    -0.800000E-01   12.0110           0
     17053 MEMB     149      SAPE     HA       HAL2     0.900000E-01   1.00800           0
     17054 MEMB     149      SAPE     HB       HAL2     0.900000E-01   1.00800           0
     17055 MEMB     149      SAPE     C2       CTL1     0.170000       12.0110           0
     17056 MEMB     149      SAPE     HS       HAL1     0.900000E-01   1.00800           0
     17057 MEMB     149      SAPE     O21      OSL     -0.490000       15.9994           0
     17058 MEMB     149      SAPE     C21      CL       0.900000       12.0110           0
     17059 MEMB     149      SAPE     O22      OBL     -0.630000       15.9994           0
     17060 MEMB     149      SAPE     C22      CTL2    -0.220000       12.0110           0
     17061 MEMB     149      SAPE     H2R      HAL2     0.900000E-01   1.00800           0
     17062 MEMB     149      SAPE     H2S      HAL2     0.900000E-01   1.00800           0
     17063 MEMB     149      SAPE     C3       CTL2     0.800000E-01   12.0110           0
     17064 MEMB     149      SAPE     HX       HAL2     0.900000E-01   1.00800           0
     17065 MEMB     149      SAPE     HY       HAL2     0.900000E-01   1.00800           0
     17066 MEMB     149      SAPE     O31      OSL     -0.490000       15.9994           0
     17067 MEMB     149      SAPE     C31      CL       0.900000       12.0110           0
     17068 MEMB     149      SAPE     O32      OBL     -0.630000       15.9994           0
     17069 MEMB     149      SAPE     C32      CTL2    -0.220000       12.0110           0
     17070 MEMB     149      SAPE     H2X      HAL2     0.900000E-01   1.00800           0
     17071 MEMB     149      SAPE     H2Y      HAL2     0.900000E-01   1.00800           0
     17072 MEMB     149      SAPE     C23      CTL2    -0.180000       12.0110           0
     17073 MEMB     149      SAPE     H3R      HAL2     0.900000E-01   1.00800           0
     17074 MEMB     149      SAPE     H3S      HAL2     0.900000E-01   1.00800           0
     17075 MEMB     149      SAPE     C24      CTL2    -0.180000       12.0110           0
     17076 MEMB     149      SAPE     H4R      HAL2     0.900000E-01   1.00800           0
     17077 MEMB     149      SAPE     H4S      HAL2     0.900000E-01   1.00800           0
     17078 MEMB     149      SAPE     C25      CEL1    -0.150000       12.0110           0
     17079 MEMB     149      SAPE     H5R      HEL1     0.150000       1.00800           0
     17080 MEMB     149      SAPE     C26      CEL1    -0.150000       12.0110           0
     17081 MEMB     149      SAPE     H6R      HEL1     0.150000       1.00800           0
     17082 MEMB     149      SAPE     C27      CTL2    -0.180000       12.0110           0
     17083 MEMB     149      SAPE     H7R      HAL2     0.900000E-01   1.00800           0
     17084 MEMB     149      SAPE     H7S      HAL2     0.900000E-01   1.00800           0
     17085 MEMB     149      SAPE     C28      CEL1    -0.150000       12.0110           0
     17086 MEMB     149      SAPE     H8R      HEL1     0.150000       1.00800           0
     17087 MEMB     149      SAPE     C29      CEL1    -0.150000       12.0110           0
     17088 MEMB     149      SAPE     H9R      HEL1     0.150000       1.00800           0
     17089 MEMB     149      SAPE     C210     CTL2    -0.180000       12.0110           0
     17090 MEMB     149      SAPE     H10R     HAL2     0.900000E-01   1.00800           0
     17091 MEMB     149      SAPE     H10S     HAL2     0.900000E-01   1.00800           0
     17092 MEMB     149      SAPE     C211     CEL1    -0.150000       12.0110           0
     17093 MEMB     149      SAPE     H11R     HEL1     0.150000       1.00800           0
     17094 MEMB     149      SAPE     C212     CEL1    -0.150000       12.0110           0
     17095 MEMB     149      SAPE     H12R     HEL1     0.150000       1.00800           0
     17096 MEMB     149      SAPE     C213     CTL2    -0.180000       12.0110           0
     17097 MEMB     149      SAPE     H13R     HAL2     0.900000E-01   1.00800           0
     17098 MEMB     149      SAPE     H13S     HAL2     0.900000E-01   1.00800           0
     17099 MEMB     149      SAPE     C214     CEL1    -0.150000       12.0110           0
     17100 MEMB     149      SAPE     H14R     HEL1     0.150000       1.00800           0
     17101 MEMB     149      SAPE     C215     CEL1    -0.150000       12.0110           0
     17102 MEMB     149      SAPE     H15R     HEL1     0.150000       1.00800           0
     17103 MEMB     149      SAPE     C216     CTL2    -0.180000       12.0110           0
     17104 MEMB     149      SAPE     H16R     HAL2     0.900000E-01   1.00800           0
     17105 MEMB     149      SAPE     H16S     HAL2     0.900000E-01   1.00800           0
     17106 MEMB     149      SAPE     C217     CTL2    -0.180000       12.0110           0
     17107 MEMB     149      SAPE     H17R     HAL2     0.900000E-01   1.00800           0
     17108 MEMB     149      SAPE     H17S     HAL2     0.900000E-01   1.00800           0
     17109 MEMB     149      SAPE     C218     CTL2    -0.180000       12.0110           0
     17110 MEMB     149      SAPE     H18R     HAL2     0.900000E-01   1.00800           0
     17111 MEMB     149      SAPE     H18S     HAL2     0.900000E-01   1.00800           0
     17112 MEMB     149      SAPE     C219     CTL2    -0.180000       12.0110           0
     17113 MEMB     149      SAPE     H19R     HAL2     0.900000E-01   1.00800           0
     17114 MEMB     149      SAPE     H19S     HAL2     0.900000E-01   1.00800           0
     17115 MEMB     149      SAPE     C220     CTL3    -0.270000       12.0110           0
     17116 MEMB     149      SAPE     H20R     HAL3     0.900000E-01   1.00800           0
     17117 MEMB     149      SAPE     H20S     HAL3     0.900000E-01   1.00800           0
     17118 MEMB     149      SAPE     H20T     HAL3     0.900000E-01   1.00800           0
     17119 MEMB     149      SAPE     C33      CTL2    -0.180000       12.0110           0
     17120 MEMB     149      SAPE     H3X      HAL2     0.900000E-01   1.00800           0
     17121 MEMB     149      SAPE     H3Y      HAL2     0.900000E-01   1.00800           0
     17122 MEMB     149      SAPE     C34      CTL2    -0.180000       12.0110           0
     17123 MEMB     149      SAPE     H4X      HAL2     0.900000E-01   1.00800           0
     17124 MEMB     149      SAPE     H4Y      HAL2     0.900000E-01   1.00800           0
     17125 MEMB     149      SAPE     C35      CTL2    -0.180000       12.0110           0
     17126 MEMB     149      SAPE     H5X      HAL2     0.900000E-01   1.00800           0
     17127 MEMB     149      SAPE     H5Y      HAL2     0.900000E-01   1.00800           0
     17128 MEMB     149      SAPE     C36      CTL2    -0.180000       12.0110           0
     17129 MEMB     149      SAPE     H6X      HAL2     0.900000E-01   1.00800           0
     17130 MEMB     149      SAPE     H6Y      HAL2     0.900000E-01   1.00800           0
     17131 MEMB     149      SAPE     C37      CTL2    -0.180000       12.0110           0
     17132 MEMB     149      SAPE     H7X      HAL2     0.900000E-01   1.00800           0
     17133 MEMB     149      SAPE     H7Y      HAL2     0.900000E-01   1.00800           0
     17134 MEMB     149      SAPE     C38      CTL2    -0.180000       12.0110           0
     17135 MEMB     149      SAPE     H8X      HAL2     0.900000E-01   1.00800           0
     17136 MEMB     149      SAPE     H8Y      HAL2     0.900000E-01   1.00800           0
     17137 MEMB     149      SAPE     C39      CTL2    -0.180000       12.0110           0
     17138 MEMB     149      SAPE     H9X      HAL2     0.900000E-01   1.00800           0
     17139 MEMB     149      SAPE     H9Y      HAL2     0.900000E-01   1.00800           0
     17140 MEMB     149      SAPE     C310     CTL2    -0.180000       12.0110           0
     17141 MEMB     149      SAPE     H10X     HAL2     0.900000E-01   1.00800           0
     17142 MEMB     149      SAPE     H10Y     HAL2     0.900000E-01   1.00800           0
     17143 MEMB     149      SAPE     C311     CTL2    -0.180000       12.0110           0
     17144 MEMB     149      SAPE     H11X     HAL2     0.900000E-01   1.00800           0
     17145 MEMB     149      SAPE     H11Y     HAL2     0.900000E-01   1.00800           0
     17146 MEMB     149      SAPE     C312     CTL2    -0.180000       12.0110           0
     17147 MEMB     149      SAPE     H12X     HAL2     0.900000E-01   1.00800           0
     17148 MEMB     149      SAPE     H12Y     HAL2     0.900000E-01   1.00800           0
     17149 MEMB     149      SAPE     C313     CTL2    -0.180000       12.0110           0
     17150 MEMB     149      SAPE     H13X     HAL2     0.900000E-01   1.00800           0
     17151 MEMB     149      SAPE     H13Y     HAL2     0.900000E-01   1.00800           0
     17152 MEMB     149      SAPE     C314     CTL2    -0.180000       12.0110           0
     17153 MEMB     149      SAPE     H14X     HAL2     0.900000E-01   1.00800           0
     17154 MEMB     149      SAPE     H14Y     HAL2     0.900000E-01   1.00800           0
     17155 MEMB     149      SAPE     C315     CTL2    -0.180000       12.0110           0
     17156 MEMB     149      SAPE     H15X     HAL2     0.900000E-01   1.00800           0
     17157 MEMB     149      SAPE     H15Y     HAL2     0.900000E-01   1.00800           0
     17158 MEMB     149      SAPE     C316     CTL2    -0.180000       12.0110           0
     17159 MEMB     149      SAPE     H16X     HAL2     0.900000E-01   1.00800           0
     17160 MEMB     149      SAPE     H16Y     HAL2     0.900000E-01   1.00800           0
     17161 MEMB     149      SAPE     C317     CTL2    -0.180000       12.0110           0
     17162 MEMB     149      SAPE     H17X     HAL2     0.900000E-01   1.00800           0
     17163 MEMB     149      SAPE     H17Y     HAL2     0.900000E-01   1.00800           0
     17164 MEMB     149      SAPE     C318     CTL3    -0.270000       12.0110           0
     17165 MEMB     149      SAPE     H18X     HAL3     0.900000E-01   1.00800           0
     17166 MEMB     149      SAPE     H18Y     HAL3     0.900000E-01   1.00800           0
     17167 MEMB     149      SAPE     H18Z     HAL3     0.900000E-01   1.00800           0
     17168 MEMB     150      OSM      N        NTL     -0.600000       14.0070           0
     17169 MEMB     150      OSM      C15      CTL5    -0.350000       12.0110           0
     17170 MEMB     150      OSM      H15A     HL       0.250000       1.00800           0
     17171 MEMB     150      OSM      H15B     HL       0.250000       1.00800           0
     17172 MEMB     150      OSM      H15C     HL       0.250000       1.00800           0
     17173 MEMB     150      OSM      C14      CTL5    -0.350000       12.0110           0
     17174 MEMB     150      OSM      H14A     HL       0.250000       1.00800           0
     17175 MEMB     150      OSM      H14B     HL       0.250000       1.00800           0
     17176 MEMB     150      OSM      H14C     HL       0.250000       1.00800           0
     17177 MEMB     150      OSM      C13      CTL5    -0.350000       12.0110           0
     17178 MEMB     150      OSM      H13A     HL       0.250000       1.00800           0
     17179 MEMB     150      OSM      H13B     HL       0.250000       1.00800           0
     17180 MEMB     150      OSM      H13C     HL       0.250000       1.00800           0
     17181 MEMB     150      OSM      C12      CTL2    -0.100000       12.0110           0
     17182 MEMB     150      OSM      H12A     HL       0.250000       1.00800           0
     17183 MEMB     150      OSM      H12B     HL       0.250000       1.00800           0
     17184 MEMB     150      OSM      C11      CTL2    -0.800000E-01   12.0110           0
     17185 MEMB     150      OSM      H11A     HAL2     0.900000E-01   1.00800           0
     17186 MEMB     150      OSM      H11B     HAL2     0.900000E-01   1.00800           0
     17187 MEMB     150      OSM      P        PL        1.50000       30.9740           0
     17188 MEMB     150      OSM      O13      O2L     -0.780000       15.9994           0
     17189 MEMB     150      OSM      O14      O2L     -0.780000       15.9994           0
     17190 MEMB     150      OSM      O11      OSLP    -0.570000       15.9994           0
     17191 MEMB     150      OSM      O12      OSLP    -0.570000       15.9994           0
     17192 MEMB     150      OSM      C1S      CTL2    -0.800000E-01   12.0110           0
     17193 MEMB     150      OSM      H1S      HAL2     0.900000E-01   1.00800           0
     17194 MEMB     150      OSM      H1T      HAL2     0.900000E-01   1.00800           0
     17195 MEMB     150      OSM      NF       NHL     -0.700000       14.0070           0
     17196 MEMB     150      OSM      HNF      H        0.350000       1.00800           0
     17197 MEMB     150      OSM      C2S      CTL1     0.300000       12.0110           0
     17198 MEMB     150      OSM      H2S      HAL1     0.500000E-01   1.00800           0
     17199 MEMB     150      OSM      C3S      CTO1     0.500000       12.0110           0
     17200 MEMB     150      OSM      H3S      HAL1    -0.110000       1.00800           0
     17201 MEMB     150      OSM      O3       OHL     -0.690000       15.9994           0
     17202 MEMB     150      OSM      HO3      HOL      0.300000       1.00800           0
     17203 MEMB     150      OSM      C4S      CEL3    -0.150000       12.0110           0
     17204 MEMB     150      OSM      H4S      HEL1     0.150000       1.00800           0
     17205 MEMB     150      OSM      C5S      CEL3    -0.150000       12.0110           0
     17206 MEMB     150      OSM      H5S      HEL1     0.150000       1.00800           0
     17207 MEMB     150      OSM      C6S      CTL2    -0.180000       12.0110           0
     17208 MEMB     150      OSM      H6S      HAL2     0.900000E-01   1.00800           0
     17209 MEMB     150      OSM      H6T      HAL2     0.900000E-01   1.00800           0
     17210 MEMB     150      OSM      C7S      CTL2    -0.180000       12.0110           0
     17211 MEMB     150      OSM      H7S      HAL2     0.900000E-01   1.00800           0
     17212 MEMB     150      OSM      H7T      HAL2     0.900000E-01   1.00800           0
     17213 MEMB     150      OSM      C8S      CTL2    -0.180000       12.0110           0
     17214 MEMB     150      OSM      H8S      HAL2     0.900000E-01   1.00800           0
     17215 MEMB     150      OSM      H8T      HAL2     0.900000E-01   1.00800           0
     17216 MEMB     150      OSM      C9S      CTL2    -0.180000       12.0110           0
     17217 MEMB     150      OSM      H9S      HAL2     0.900000E-01   1.00800           0
     17218 MEMB     150      OSM      H9T      HAL2     0.900000E-01   1.00800           0
     17219 MEMB     150      OSM      C10S     CTL2    -0.180000       12.0110           0
     17220 MEMB     150      OSM      H10S     HAL2     0.900000E-01   1.00800           0
     17221 MEMB     150      OSM      H10T     HAL2     0.900000E-01   1.00800           0
     17222 MEMB     150      OSM      C11S     CTL2    -0.180000       12.0110           0
     17223 MEMB     150      OSM      H11S     HAL2     0.900000E-01   1.00800           0
     17224 MEMB     150      OSM      H11T     HAL2     0.900000E-01   1.00800           0
     17225 MEMB     150      OSM      C12S     CTL2    -0.180000       12.0110           0
     17226 MEMB     150      OSM      H12S     HAL2     0.900000E-01   1.00800           0
     17227 MEMB     150      OSM      H12T     HAL2     0.900000E-01   1.00800           0
     17228 MEMB     150      OSM      C13S     CTL2    -0.180000       12.0110           0
     17229 MEMB     150      OSM      H13S     HAL2     0.900000E-01   1.00800           0
     17230 MEMB     150      OSM      H13T     HAL2     0.900000E-01   1.00800           0
     17231 MEMB     150      OSM      C14S     CTL2    -0.180000       12.0110           0
     17232 MEMB     150      OSM      H14S     HAL2     0.900000E-01   1.00800           0
     17233 MEMB     150      OSM      H14T     HAL2     0.900000E-01   1.00800           0
     17234 MEMB     150      OSM      C15S     CTL2    -0.180000       12.0110           0
     17235 MEMB     150      OSM      H15S     HAL2     0.900000E-01   1.00800           0
     17236 MEMB     150      OSM      H15T     HAL2     0.900000E-01   1.00800           0
     17237 MEMB     150      OSM      C16S     CTL2    -0.180000       12.0110           0
     17238 MEMB     150      OSM      H16S     HAL2     0.900000E-01   1.00800           0
     17239 MEMB     150      OSM      H16T     HAL2     0.900000E-01   1.00800           0
     17240 MEMB     150      OSM      C17S     CTL2    -0.180000       12.0110           0
     17241 MEMB     150      OSM      H17S     HAL2     0.900000E-01   1.00800           0
     17242 MEMB     150      OSM      H17T     HAL2     0.900000E-01   1.00800           0
     17243 MEMB     150      OSM      C18S     CTL3    -0.270000       12.0110           0
     17244 MEMB     150      OSM      H18S     HAL3     0.900000E-01   1.00800           0
     17245 MEMB     150      OSM      H18T     HAL3     0.900000E-01   1.00800           0
     17246 MEMB     150      OSM      H18U     HAL3     0.900000E-01   1.00800           0
     17247 MEMB     150      OSM      C1F      C        0.550000       12.0110           0
     17248 MEMB     150      OSM      OF       O       -0.600000       15.9994           0
     17249 MEMB     150      OSM      C2F      CTL2    -0.700000E-01   12.0110           0
     17250 MEMB     150      OSM      H2F      HAL2     0.600000E-01   1.00800           0
     17251 MEMB     150      OSM      H2G      HAL2     0.600000E-01   1.00800           0
     17252 MEMB     150      OSM      C3F      CTL2    -0.180000       12.0110           0
     17253 MEMB     150      OSM      H3F      HAL2     0.900000E-01   1.00800           0
     17254 MEMB     150      OSM      H3G      HAL2     0.900000E-01   1.00800           0
     17255 MEMB     150      OSM      C4F      CTL2    -0.180000       12.0110           0
     17256 MEMB     150      OSM      H4F      HAL2     0.900000E-01   1.00800           0
     17257 MEMB     150      OSM      H4G      HAL2     0.900000E-01   1.00800           0
     17258 MEMB     150      OSM      C5F      CTL2    -0.180000       12.0110           0
     17259 MEMB     150      OSM      H5F      HAL2     0.900000E-01   1.00800           0
     17260 MEMB     150      OSM      H5G      HAL2     0.900000E-01   1.00800           0
     17261 MEMB     150      OSM      C6F      CTL2    -0.180000       12.0110           0
     17262 MEMB     150      OSM      H6F      HAL2     0.900000E-01   1.00800           0
     17263 MEMB     150      OSM      H6G      HAL2     0.900000E-01   1.00800           0
     17264 MEMB     150      OSM      C7F      CTL2    -0.180000       12.0110           0
     17265 MEMB     150      OSM      H7F      HAL2     0.900000E-01   1.00800           0
     17266 MEMB     150      OSM      H7G      HAL2     0.900000E-01   1.00800           0
     17267 MEMB     150      OSM      C8F      CTL2    -0.180000       12.0110           0
     17268 MEMB     150      OSM      H8F      HAL2     0.900000E-01   1.00800           0
     17269 MEMB     150      OSM      H8G      HAL2     0.900000E-01   1.00800           0
     17270 MEMB     150      OSM      C9F      CEL1    -0.150000       12.0110           0
     17271 MEMB     150      OSM      H9F      HEL1     0.150000       1.00800           0
     17272 MEMB     150      OSM      C10F     CEL1    -0.150000       12.0110           0
     17273 MEMB     150      OSM      H10F     HEL1     0.150000       1.00800           0
     17274 MEMB     150      OSM      C11F     CTL2    -0.180000       12.0110           0
     17275 MEMB     150      OSM      H11F     HAL2     0.900000E-01   1.00800           0
     17276 MEMB     150      OSM      H11G     HAL2     0.900000E-01   1.00800           0
     17277 MEMB     150      OSM      C12F     CTL2    -0.180000       12.0110           0
     17278 MEMB     150      OSM      H12F     HAL2     0.900000E-01   1.00800           0
     17279 MEMB     150      OSM      H12G     HAL2     0.900000E-01   1.00800           0
     17280 MEMB     150      OSM      C13F     CTL2    -0.180000       12.0110           0
     17281 MEMB     150      OSM      H13F     HAL2     0.900000E-01   1.00800           0
     17282 MEMB     150      OSM      H13G     HAL2     0.900000E-01   1.00800           0
     17283 MEMB     150      OSM      C14F     CTL2    -0.180000       12.0110           0
     17284 MEMB     150      OSM      H14F     HAL2     0.900000E-01   1.00800           0
     17285 MEMB     150      OSM      H14G     HAL2     0.900000E-01   1.00800           0
     17286 MEMB     150      OSM      C15F     CTL2    -0.180000       12.0110           0
     17287 MEMB     150      OSM      H15F     HAL2     0.900000E-01   1.00800           0
     17288 MEMB     150      OSM      H15G     HAL2     0.900000E-01   1.00800           0
     17289 MEMB     150      OSM      C16F     CTL2    -0.180000       12.0110           0
     17290 MEMB     150      OSM      H16F     HAL2     0.900000E-01   1.00800           0
     17291 MEMB     150      OSM      H16G     HAL2     0.900000E-01   1.00800           0
     17292 MEMB     150      OSM      C17F     CTL2    -0.180000       12.0110           0
     17293 MEMB     150      OSM      H17F     HAL2     0.900000E-01   1.00800           0
     17294 MEMB     150      OSM      H17G     HAL2     0.900000E-01   1.00800           0
     17295 MEMB     150      OSM      C18F     CTL3    -0.270000       12.0110           0
     17296 MEMB     150      OSM      H18F     HAL3     0.900000E-01   1.00800           0
     17297 MEMB     150      OSM      H18G     HAL3     0.900000E-01   1.00800           0
     17298 MEMB     150      OSM      H18H     HAL3     0.900000E-01   1.00800           0
     17299 MEMB     151      CHL1     C3       CRL1     0.140000       12.0110           0
     17300 MEMB     151      CHL1     H3       HGA1     0.900000E-01   1.00800           0
     17301 MEMB     151      CHL1     O3       OHL     -0.660000       15.9994           0
     17302 MEMB     151      CHL1     H3'      HOL      0.430000       1.00800           0
     17303 MEMB     151      CHL1     C4       CRL2    -0.180000       12.0110           0
     17304 MEMB     151      CHL1     H4A      HGA2     0.900000E-01   1.00800           0
     17305 MEMB     151      CHL1     H4B      HGA2     0.900000E-01   1.00800           0
     17306 MEMB     151      CHL1     C5       CEL1      0.00000       12.0110           0
     17307 MEMB     151      CHL1     C6       CEL1    -0.150000       12.0110           0
     17308 MEMB     151      CHL1     H6       HEL1     0.150000       1.00800           0
     17309 MEMB     151      CHL1     C7       CRL2    -0.180000       12.0110           0
     17310 MEMB     151      CHL1     H7A      HGA2     0.900000E-01   1.00800           0
     17311 MEMB     151      CHL1     H7B      HGA2     0.900000E-01   1.00800           0
     17312 MEMB     151      CHL1     C8       CRL1    -0.900000E-01   12.0110           0
     17313 MEMB     151      CHL1     H8       HGA1     0.900000E-01   1.00800           0
     17314 MEMB     151      CHL1     C14      CRL1    -0.900000E-01   12.0110           0
     17315 MEMB     151      CHL1     H14      HGA1     0.900000E-01   1.00800           0
     17316 MEMB     151      CHL1     C15      CRL2    -0.180000       12.0110           0
     17317 MEMB     151      CHL1     H15A     HGA2     0.900000E-01   1.00800           0
     17318 MEMB     151      CHL1     H15B     HGA2     0.900000E-01   1.00800           0
     17319 MEMB     151      CHL1     C16      CRL2    -0.180000       12.0110           0
     17320 MEMB     151      CHL1     H16A     HGA2     0.900000E-01   1.00800           0
     17321 MEMB     151      CHL1     H16B     HGA2     0.900000E-01   1.00800           0
     17322 MEMB     151      CHL1     C17      CRL1    -0.900000E-01   12.0110           0
     17323 MEMB     151      CHL1     H17      HGA1     0.900000E-01   1.00800           0
     17324 MEMB     151      CHL1     C13      CRL1      0.00000       12.0110           0
     17325 MEMB     151      CHL1     C18      CTL3    -0.270000       12.0110           0
     17326 MEMB     151      CHL1     H18A     HAL3     0.900000E-01   1.00800           0
     17327 MEMB     151      CHL1     H18B     HAL3     0.900000E-01   1.00800           0
     17328 MEMB     151      CHL1     H18C     HAL3     0.900000E-01   1.00800           0
     17329 MEMB     151      CHL1     C12      CRL2    -0.180000       12.0110           0
     17330 MEMB     151      CHL1     H12A     HGA2     0.900000E-01   1.00800           0
     17331 MEMB     151      CHL1     H12B     HGA2     0.900000E-01   1.00800           0
     17332 MEMB     151      CHL1     C11      CRL2    -0.180000       12.0110           0
     17333 MEMB     151      CHL1     H11A     HGA2     0.900000E-01   1.00800           0
     17334 MEMB     151      CHL1     H11B     HGA2     0.900000E-01   1.00800           0
     17335 MEMB     151      CHL1     C9       CRL1    -0.900000E-01   12.0110           0
     17336 MEMB     151      CHL1     H9       HGA1     0.900000E-01   1.00800           0
     17337 MEMB     151      CHL1     C10      CRL1      0.00000       12.0110           0
     17338 MEMB     151      CHL1     C19      CTL3    -0.270000       12.0110           0
     17339 MEMB     151      CHL1     H19A     HAL3     0.900000E-01   1.00800           0
     17340 MEMB     151      CHL1     H19B     HAL3     0.900000E-01   1.00800           0
     17341 MEMB     151      CHL1     H19C     HAL3     0.900000E-01   1.00800           0
     17342 MEMB     151      CHL1     C1       CRL2    -0.180000       12.0110           0
     17343 MEMB     151      CHL1     H1A      HGA2     0.900000E-01   1.00800           0
     17344 MEMB     151      CHL1     H1B      HGA2     0.900000E-01   1.00800           0
     17345 MEMB     151      CHL1     C2       CRL2    -0.180000       12.0110           0
     17346 MEMB     151      CHL1     H2A      HGA2     0.900000E-01   1.00800           0
     17347 MEMB     151      CHL1     H2B      HGA2     0.900000E-01   1.00800           0
     17348 MEMB     151      CHL1     C20      CTL1    -0.900000E-01   12.0110           0
     17349 MEMB     151      CHL1     H20      HAL1     0.900000E-01   1.00800           0
     17350 MEMB     151      CHL1     C21      CTL3    -0.270000       12.0110           0
     17351 MEMB     151      CHL1     H21A     HAL3     0.900000E-01   1.00800           0
     17352 MEMB     151      CHL1     H21B     HAL3     0.900000E-01   1.00800           0
     17353 MEMB     151      CHL1     H21C     HAL3     0.900000E-01   1.00800           0
     17354 MEMB     151      CHL1     C22      CTL2    -0.180000       12.0110           0
     17355 MEMB     151      CHL1     H22A     HAL2     0.900000E-01   1.00800           0
     17356 MEMB     151      CHL1     H22B     HAL2     0.900000E-01   1.00800           0
     17357 MEMB     151      CHL1     C23      CTL2    -0.180000       12.0110           0
     17358 MEMB     151      CHL1     H23A     HAL2     0.900000E-01   1.00800           0
     17359 MEMB     151      CHL1     H23B     HAL2     0.900000E-01   1.00800           0
     17360 MEMB     151      CHL1     C24      CTL2    -0.180000       12.0110           0
     17361 MEMB     151      CHL1     H24A     HAL2     0.900000E-01   1.00800           0
     17362 MEMB     151      CHL1     H24B     HAL2     0.900000E-01   1.00800           0
     17363 MEMB     151      CHL1     C25      CTL1    -0.900000E-01   12.0110           0
     17364 MEMB     151      CHL1     H25      HAL1     0.900000E-01   1.00800           0
     17365 MEMB     151      CHL1     C26      CTL3    -0.270000       12.0110           0
     17366 MEMB     151      CHL1     H26A     HAL3     0.900000E-01   1.00800           0
     17367 MEMB     151      CHL1     H26B     HAL3     0.900000E-01   1.00800           0
     17368 MEMB     151      CHL1     H26C     HAL3     0.900000E-01   1.00800           0
     17369 MEMB     151      CHL1     C27      CTL3    -0.270000       12.0110           0
     17370 MEMB     151      CHL1     H27A     HAL3     0.900000E-01   1.00800           0
     17371 MEMB     151      CHL1     H27B     HAL3     0.900000E-01   1.00800           0
     17372 MEMB     151      CHL1     H27C     HAL3     0.900000E-01   1.00800           0
     17373 MEMB     152      OSM      N        NTL     -0.600000       14.0070           0
     17374 MEMB     152      OSM      C15      CTL5    -0.350000       12.0110           0
     17375 MEMB     152      OSM      H15A     HL       0.250000       1.00800           0
     17376 MEMB     152      OSM      H15B     HL       0.250000       1.00800           0
     17377 MEMB     152      OSM      H15C     HL       0.250000       1.00800           0
     17378 MEMB     152      OSM      C14      CTL5    -0.350000       12.0110           0
     17379 MEMB     152      OSM      H14A     HL       0.250000       1.00800           0
     17380 MEMB     152      OSM      H14B     HL       0.250000       1.00800           0
     17381 MEMB     152      OSM      H14C     HL       0.250000       1.00800           0
     17382 MEMB     152      OSM      C13      CTL5    -0.350000       12.0110           0
     17383 MEMB     152      OSM      H13A     HL       0.250000       1.00800           0
     17384 MEMB     152      OSM      H13B     HL       0.250000       1.00800           0
     17385 MEMB     152      OSM      H13C     HL       0.250000       1.00800           0
     17386 MEMB     152      OSM      C12      CTL2    -0.100000       12.0110           0
     17387 MEMB     152      OSM      H12A     HL       0.250000       1.00800           0
     17388 MEMB     152      OSM      H12B     HL       0.250000       1.00800           0
     17389 MEMB     152      OSM      C11      CTL2    -0.800000E-01   12.0110           0
     17390 MEMB     152      OSM      H11A     HAL2     0.900000E-01   1.00800           0
     17391 MEMB     152      OSM      H11B     HAL2     0.900000E-01   1.00800           0
     17392 MEMB     152      OSM      P        PL        1.50000       30.9740           0
     17393 MEMB     152      OSM      O13      O2L     -0.780000       15.9994           0
     17394 MEMB     152      OSM      O14      O2L     -0.780000       15.9994           0
     17395 MEMB     152      OSM      O11      OSLP    -0.570000       15.9994           0
     17396 MEMB     152      OSM      O12      OSLP    -0.570000       15.9994           0
     17397 MEMB     152      OSM      C1S      CTL2    -0.800000E-01   12.0110           0
     17398 MEMB     152      OSM      H1S      HAL2     0.900000E-01   1.00800           0
     17399 MEMB     152      OSM      H1T      HAL2     0.900000E-01   1.00800           0
     17400 MEMB     152      OSM      NF       NHL     -0.700000       14.0070           0
     17401 MEMB     152      OSM      HNF      H        0.350000       1.00800           0
     17402 MEMB     152      OSM      C2S      CTL1     0.300000       12.0110           0
     17403 MEMB     152      OSM      H2S      HAL1     0.500000E-01   1.00800           0
     17404 MEMB     152      OSM      C3S      CTO1     0.500000       12.0110           0
     17405 MEMB     152      OSM      H3S      HAL1    -0.110000       1.00800           0
     17406 MEMB     152      OSM      O3       OHL     -0.690000       15.9994           0
     17407 MEMB     152      OSM      HO3      HOL      0.300000       1.00800           0
     17408 MEMB     152      OSM      C4S      CEL3    -0.150000       12.0110           0
     17409 MEMB     152      OSM      H4S      HEL1     0.150000       1.00800           0
     17410 MEMB     152      OSM      C5S      CEL3    -0.150000       12.0110           0
     17411 MEMB     152      OSM      H5S      HEL1     0.150000       1.00800           0
     17412 MEMB     152      OSM      C6S      CTL2    -0.180000       12.0110           0
     17413 MEMB     152      OSM      H6S      HAL2     0.900000E-01   1.00800           0
     17414 MEMB     152      OSM      H6T      HAL2     0.900000E-01   1.00800           0
     17415 MEMB     152      OSM      C7S      CTL2    -0.180000       12.0110           0
     17416 MEMB     152      OSM      H7S      HAL2     0.900000E-01   1.00800           0
     17417 MEMB     152      OSM      H7T      HAL2     0.900000E-01   1.00800           0
     17418 MEMB     152      OSM      C8S      CTL2    -0.180000       12.0110           0
     17419 MEMB     152      OSM      H8S      HAL2     0.900000E-01   1.00800           0
     17420 MEMB     152      OSM      H8T      HAL2     0.900000E-01   1.00800           0
     17421 MEMB     152      OSM      C9S      CTL2    -0.180000       12.0110           0
     17422 MEMB     152      OSM      H9S      HAL2     0.900000E-01   1.00800           0
     17423 MEMB     152      OSM      H9T      HAL2     0.900000E-01   1.00800           0
     17424 MEMB     152      OSM      C10S     CTL2    -0.180000       12.0110           0
     17425 MEMB     152      OSM      H10S     HAL2     0.900000E-01   1.00800           0
     17426 MEMB     152      OSM      H10T     HAL2     0.900000E-01   1.00800           0
     17427 MEMB     152      OSM      C11S     CTL2    -0.180000       12.0110           0
     17428 MEMB     152      OSM      H11S     HAL2     0.900000E-01   1.00800           0
     17429 MEMB     152      OSM      H11T     HAL2     0.900000E-01   1.00800           0
     17430 MEMB     152      OSM      C12S     CTL2    -0.180000       12.0110           0
     17431 MEMB     152      OSM      H12S     HAL2     0.900000E-01   1.00800           0
     17432 MEMB     152      OSM      H12T     HAL2     0.900000E-01   1.00800           0
     17433 MEMB     152      OSM      C13S     CTL2    -0.180000       12.0110           0
     17434 MEMB     152      OSM      H13S     HAL2     0.900000E-01   1.00800           0
     17435 MEMB     152      OSM      H13T     HAL2     0.900000E-01   1.00800           0
     17436 MEMB     152      OSM      C14S     CTL2    -0.180000       12.0110           0
     17437 MEMB     152      OSM      H14S     HAL2     0.900000E-01   1.00800           0
     17438 MEMB     152      OSM      H14T     HAL2     0.900000E-01   1.00800           0
     17439 MEMB     152      OSM      C15S     CTL2    -0.180000       12.0110           0
     17440 MEMB     152      OSM      H15S     HAL2     0.900000E-01   1.00800           0
     17441 MEMB     152      OSM      H15T     HAL2     0.900000E-01   1.00800           0
     17442 MEMB     152      OSM      C16S     CTL2    -0.180000       12.0110           0
     17443 MEMB     152      OSM      H16S     HAL2     0.900000E-01   1.00800           0
     17444 MEMB     152      OSM      H16T     HAL2     0.900000E-01   1.00800           0
     17445 MEMB     152      OSM      C17S     CTL2    -0.180000       12.0110           0
     17446 MEMB     152      OSM      H17S     HAL2     0.900000E-01   1.00800           0
     17447 MEMB     152      OSM      H17T     HAL2     0.900000E-01   1.00800           0
     17448 MEMB     152      OSM      C18S     CTL3    -0.270000       12.0110           0
     17449 MEMB     152      OSM      H18S     HAL3     0.900000E-01   1.00800           0
     17450 MEMB     152      OSM      H18T     HAL3     0.900000E-01   1.00800           0
     17451 MEMB     152      OSM      H18U     HAL3     0.900000E-01   1.00800           0
     17452 MEMB     152      OSM      C1F      C        0.550000       12.0110           0
     17453 MEMB     152      OSM      OF       O       -0.600000       15.9994           0
     17454 MEMB     152      OSM      C2F      CTL2    -0.700000E-01   12.0110           0
     17455 MEMB     152      OSM      H2F      HAL2     0.600000E-01   1.00800           0
     17456 MEMB     152      OSM      H2G      HAL2     0.600000E-01   1.00800           0
     17457 MEMB     152      OSM      C3F      CTL2    -0.180000       12.0110           0
     17458 MEMB     152      OSM      H3F      HAL2     0.900000E-01   1.00800           0
     17459 MEMB     152      OSM      H3G      HAL2     0.900000E-01   1.00800           0
     17460 MEMB     152      OSM      C4F      CTL2    -0.180000       12.0110           0
     17461 MEMB     152      OSM      H4F      HAL2     0.900000E-01   1.00800           0
     17462 MEMB     152      OSM      H4G      HAL2     0.900000E-01   1.00800           0
     17463 MEMB     152      OSM      C5F      CTL2    -0.180000       12.0110           0
     17464 MEMB     152      OSM      H5F      HAL2     0.900000E-01   1.00800           0
     17465 MEMB     152      OSM      H5G      HAL2     0.900000E-01   1.00800           0
     17466 MEMB     152      OSM      C6F      CTL2    -0.180000       12.0110           0
     17467 MEMB     152      OSM      H6F      HAL2     0.900000E-01   1.00800           0
     17468 MEMB     152      OSM      H6G      HAL2     0.900000E-01   1.00800           0
     17469 MEMB     152      OSM      C7F      CTL2    -0.180000       12.0110           0
     17470 MEMB     152      OSM      H7F      HAL2     0.900000E-01   1.00800           0
     17471 MEMB     152      OSM      H7G      HAL2     0.900000E-01   1.00800           0
     17472 MEMB     152      OSM      C8F      CTL2    -0.180000       12.0110           0
     17473 MEMB     152      OSM      H8F      HAL2     0.900000E-01   1.00800           0
     17474 MEMB     152      OSM      H8G      HAL2     0.900000E-01   1.00800           0
     17475 MEMB     152      OSM      C9F      CEL1    -0.150000       12.0110           0
     17476 MEMB     152      OSM      H9F      HEL1     0.150000       1.00800           0
     17477 MEMB     152      OSM      C10F     CEL1    -0.150000       12.0110           0
     17478 MEMB     152      OSM      H10F     HEL1     0.150000       1.00800           0
     17479 MEMB     152      OSM      C11F     CTL2    -0.180000       12.0110           0
     17480 MEMB     152      OSM      H11F     HAL2     0.900000E-01   1.00800           0
     17481 MEMB     152      OSM      H11G     HAL2     0.900000E-01   1.00800           0
     17482 MEMB     152      OSM      C12F     CTL2    -0.180000       12.0110           0
     17483 MEMB     152      OSM      H12F     HAL2     0.900000E-01   1.00800           0
     17484 MEMB     152      OSM      H12G     HAL2     0.900000E-01   1.00800           0
     17485 MEMB     152      OSM      C13F     CTL2    -0.180000       12.0110           0
     17486 MEMB     152      OSM      H13F     HAL2     0.900000E-01   1.00800           0
     17487 MEMB     152      OSM      H13G     HAL2     0.900000E-01   1.00800           0
     17488 MEMB     152      OSM      C14F     CTL2    -0.180000       12.0110           0
     17489 MEMB     152      OSM      H14F     HAL2     0.900000E-01   1.00800           0
     17490 MEMB     152      OSM      H14G     HAL2     0.900000E-01   1.00800           0
     17491 MEMB     152      OSM      C15F     CTL2    -0.180000       12.0110           0
     17492 MEMB     152      OSM      H15F     HAL2     0.900000E-01   1.00800           0
     17493 MEMB     152      OSM      H15G     HAL2     0.900000E-01   1.00800           0
     17494 MEMB     152      OSM      C16F     CTL2    -0.180000       12.0110           0
     17495 MEMB     152      OSM      H16F     HAL2     0.900000E-01   1.00800           0
     17496 MEMB     152      OSM      H16G     HAL2     0.900000E-01   1.00800           0
     17497 MEMB     152      OSM      C17F     CTL2    -0.180000       12.0110           0
     17498 MEMB     152      OSM      H17F     HAL2     0.900000E-01   1.00800           0
     17499 MEMB     152      OSM      H17G     HAL2     0.900000E-01   1.00800           0
     17500 MEMB     152      OSM      C18F     CTL3    -0.270000       12.0110           0
     17501 MEMB     152      OSM      H18F     HAL3     0.900000E-01   1.00800           0
     17502 MEMB     152      OSM      H18G     HAL3     0.900000E-01   1.00800           0
     17503 MEMB     152      OSM      H18H     HAL3     0.900000E-01   1.00800           0
     17504 MEMB     153      SAPS     N        NH3L    -0.300000       14.0070           0
     17505 MEMB     153      SAPS     HN1      HCL      0.330000       1.00800           0
     17506 MEMB     153      SAPS     HN2      HCL      0.330000       1.00800           0
     17507 MEMB     153      SAPS     HN3      HCL      0.330000       1.00800           0
     17508 MEMB     153      SAPS     C12      CTL1     0.210000       12.0110           0
     17509 MEMB     153      SAPS     H12A     HBL      0.100000       1.00800           0
     17510 MEMB     153      SAPS     C13      CCL      0.340000       12.0110           0
     17511 MEMB     153      SAPS     O13A     OCL     -0.670000       15.9994           0
     17512 MEMB     153      SAPS     O13B     OCL     -0.670000       15.9994           0
     17513 MEMB     153      SAPS     C11      CTL2    -0.800000E-01   12.0110           0
     17514 MEMB     153      SAPS     H11A     HAL2     0.900000E-01   1.00800           0
     17515 MEMB     153      SAPS     H11B     HAL2     0.900000E-01   1.00800           0
     17516 MEMB     153      SAPS     P        PL        1.50000       30.9740           0
     17517 MEMB     153      SAPS     O13      O2L     -0.780000       15.9994           0
     17518 MEMB     153      SAPS     O14      O2L     -0.780000       15.9994           0
     17519 MEMB     153      SAPS     O12      OSLP    -0.570000       15.9994           0
     17520 MEMB     153      SAPS     O11      OSLP    -0.570000       15.9994           0
     17521 MEMB     153      SAPS     C1       CTL2    -0.800000E-01   12.0110           0
     17522 MEMB     153      SAPS     HA       HAL2     0.900000E-01   1.00800           0
     17523 MEMB     153      SAPS     HB       HAL2     0.900000E-01   1.00800           0
     17524 MEMB     153      SAPS     C2       CTL1     0.170000       12.0110           0
     17525 MEMB     153      SAPS     HS       HAL1     0.900000E-01   1.00800           0
     17526 MEMB     153      SAPS     O21      OSL     -0.490000       15.9994           0
     17527 MEMB     153      SAPS     C21      CL       0.900000       12.0110           0
     17528 MEMB     153      SAPS     O22      OBL     -0.630000       15.9994           0
     17529 MEMB     153      SAPS     C22      CTL2    -0.220000       12.0110           0
     17530 MEMB     153      SAPS     H2R      HAL2     0.900000E-01   1.00800           0
     17531 MEMB     153      SAPS     H2S      HAL2     0.900000E-01   1.00800           0
     17532 MEMB     153      SAPS     C3       CTL2     0.800000E-01   12.0110           0
     17533 MEMB     153      SAPS     HX       HAL2     0.900000E-01   1.00800           0
     17534 MEMB     153      SAPS     HY       HAL2     0.900000E-01   1.00800           0
     17535 MEMB     153      SAPS     O31      OSL     -0.490000       15.9994           0
     17536 MEMB     153      SAPS     C31      CL       0.900000       12.0110           0
     17537 MEMB     153      SAPS     O32      OBL     -0.630000       15.9994           0
     17538 MEMB     153      SAPS     C32      CTL2    -0.220000       12.0110           0
     17539 MEMB     153      SAPS     H2X      HAL2     0.900000E-01   1.00800           0
     17540 MEMB     153      SAPS     H2Y      HAL2     0.900000E-01   1.00800           0
     17541 MEMB     153      SAPS     C23      CTL2    -0.180000       12.0110           0
     17542 MEMB     153      SAPS     H3R      HAL2     0.900000E-01   1.00800           0
     17543 MEMB     153      SAPS     H3S      HAL2     0.900000E-01   1.00800           0
     17544 MEMB     153      SAPS     C24      CTL2    -0.180000       12.0110           0
     17545 MEMB     153      SAPS     H4R      HAL2     0.900000E-01   1.00800           0
     17546 MEMB     153      SAPS     H4S      HAL2     0.900000E-01   1.00800           0
     17547 MEMB     153      SAPS     C25      CEL1    -0.150000       12.0110           0
     17548 MEMB     153      SAPS     H5R      HEL1     0.150000       1.00800           0
     17549 MEMB     153      SAPS     C26      CEL1    -0.150000       12.0110           0
     17550 MEMB     153      SAPS     H6R      HEL1     0.150000       1.00800           0
     17551 MEMB     153      SAPS     C27      CTL2    -0.180000       12.0110           0
     17552 MEMB     153      SAPS     H7R      HAL2     0.900000E-01   1.00800           0
     17553 MEMB     153      SAPS     H7S      HAL2     0.900000E-01   1.00800           0
     17554 MEMB     153      SAPS     C28      CEL1    -0.150000       12.0110           0
     17555 MEMB     153      SAPS     H8R      HEL1     0.150000       1.00800           0
     17556 MEMB     153      SAPS     C29      CEL1    -0.150000       12.0110           0
     17557 MEMB     153      SAPS     H9R      HEL1     0.150000       1.00800           0
     17558 MEMB     153      SAPS     C210     CTL2    -0.180000       12.0110           0
     17559 MEMB     153      SAPS     H10R     HAL2     0.900000E-01   1.00800           0
     17560 MEMB     153      SAPS     H10S     HAL2     0.900000E-01   1.00800           0
     17561 MEMB     153      SAPS     C211     CEL1    -0.150000       12.0110           0
     17562 MEMB     153      SAPS     H11R     HEL1     0.150000       1.00800           0
     17563 MEMB     153      SAPS     C212     CEL1    -0.150000       12.0110           0
     17564 MEMB     153      SAPS     H12R     HEL1     0.150000       1.00800           0
     17565 MEMB     153      SAPS     C213     CTL2    -0.180000       12.0110           0
     17566 MEMB     153      SAPS     H13R     HAL2     0.900000E-01   1.00800           0
     17567 MEMB     153      SAPS     H13S     HAL2     0.900000E-01   1.00800           0
     17568 MEMB     153      SAPS     C214     CEL1    -0.150000       12.0110           0
     17569 MEMB     153      SAPS     H14R     HEL1     0.150000       1.00800           0
     17570 MEMB     153      SAPS     C215     CEL1    -0.150000       12.0110           0
     17571 MEMB     153      SAPS     H15R     HEL1     0.150000       1.00800           0
     17572 MEMB     153      SAPS     C216     CTL2    -0.180000       12.0110           0
     17573 MEMB     153      SAPS     H16R     HAL2     0.900000E-01   1.00800           0
     17574 MEMB     153      SAPS     H16S     HAL2     0.900000E-01   1.00800           0
     17575 MEMB     153      SAPS     C217     CTL2    -0.180000       12.0110           0
     17576 MEMB     153      SAPS     H17R     HAL2     0.900000E-01   1.00800           0
     17577 MEMB     153      SAPS     H17S     HAL2     0.900000E-01   1.00800           0
     17578 MEMB     153      SAPS     C218     CTL2    -0.180000       12.0110           0
     17579 MEMB     153      SAPS     H18R     HAL2     0.900000E-01   1.00800           0
     17580 MEMB     153      SAPS     H18S     HAL2     0.900000E-01   1.00800           0
     17581 MEMB     153      SAPS     C219     CTL2    -0.180000       12.0110           0
     17582 MEMB     153      SAPS     H19R     HAL2     0.900000E-01   1.00800           0
     17583 MEMB     153      SAPS     H19S     HAL2     0.900000E-01   1.00800           0
     17584 MEMB     153      SAPS     C220     CTL3    -0.270000       12.0110           0
     17585 MEMB     153      SAPS     H20R     HAL3     0.900000E-01   1.00800           0
     17586 MEMB     153      SAPS     H20S     HAL3     0.900000E-01   1.00800           0
     17587 MEMB     153      SAPS     H20T     HAL3     0.900000E-01   1.00800           0
     17588 MEMB     153      SAPS     C33      CTL2    -0.180000       12.0110           0
     17589 MEMB     153      SAPS     H3X      HAL2     0.900000E-01   1.00800           0
     17590 MEMB     153      SAPS     H3Y      HAL2     0.900000E-01   1.00800           0
     17591 MEMB     153      SAPS     C34      CTL2    -0.180000       12.0110           0
     17592 MEMB     153      SAPS     H4X      HAL2     0.900000E-01   1.00800           0
     17593 MEMB     153      SAPS     H4Y      HAL2     0.900000E-01   1.00800           0
     17594 MEMB     153      SAPS     C35      CTL2    -0.180000       12.0110           0
     17595 MEMB     153      SAPS     H5X      HAL2     0.900000E-01   1.00800           0
     17596 MEMB     153      SAPS     H5Y      HAL2     0.900000E-01   1.00800           0
     17597 MEMB     153      SAPS     C36      CTL2    -0.180000       12.0110           0
     17598 MEMB     153      SAPS     H6X      HAL2     0.900000E-01   1.00800           0
     17599 MEMB     153      SAPS     H6Y      HAL2     0.900000E-01   1.00800           0
     17600 MEMB     153      SAPS     C37      CTL2    -0.180000       12.0110           0
     17601 MEMB     153      SAPS     H7X      HAL2     0.900000E-01   1.00800           0
     17602 MEMB     153      SAPS     H7Y      HAL2     0.900000E-01   1.00800           0
     17603 MEMB     153      SAPS     C38      CTL2    -0.180000       12.0110           0
     17604 MEMB     153      SAPS     H8X      HAL2     0.900000E-01   1.00800           0
     17605 MEMB     153      SAPS     H8Y      HAL2     0.900000E-01   1.00800           0
     17606 MEMB     153      SAPS     C39      CTL2    -0.180000       12.0110           0
     17607 MEMB     153      SAPS     H9X      HAL2     0.900000E-01   1.00800           0
     17608 MEMB     153      SAPS     H9Y      HAL2     0.900000E-01   1.00800           0
     17609 MEMB     153      SAPS     C310     CTL2    -0.180000       12.0110           0
     17610 MEMB     153      SAPS     H10X     HAL2     0.900000E-01   1.00800           0
     17611 MEMB     153      SAPS     H10Y     HAL2     0.900000E-01   1.00800           0
     17612 MEMB     153      SAPS     C311     CTL2    -0.180000       12.0110           0
     17613 MEMB     153      SAPS     H11X     HAL2     0.900000E-01   1.00800           0
     17614 MEMB     153      SAPS     H11Y     HAL2     0.900000E-01   1.00800           0
     17615 MEMB     153      SAPS     C312     CTL2    -0.180000       12.0110           0
     17616 MEMB     153      SAPS     H12X     HAL2     0.900000E-01   1.00800           0
     17617 MEMB     153      SAPS     H12Y     HAL2     0.900000E-01   1.00800           0
     17618 MEMB     153      SAPS     C313     CTL2    -0.180000       12.0110           0
     17619 MEMB     153      SAPS     H13X     HAL2     0.900000E-01   1.00800           0
     17620 MEMB     153      SAPS     H13Y     HAL2     0.900000E-01   1.00800           0
     17621 MEMB     153      SAPS     C314     CTL2    -0.180000       12.0110           0
     17622 MEMB     153      SAPS     H14X     HAL2     0.900000E-01   1.00800           0
     17623 MEMB     153      SAPS     H14Y     HAL2     0.900000E-01   1.00800           0
     17624 MEMB     153      SAPS     C315     CTL2    -0.180000       12.0110           0
     17625 MEMB     153      SAPS     H15X     HAL2     0.900000E-01   1.00800           0
     17626 MEMB     153      SAPS     H15Y     HAL2     0.900000E-01   1.00800           0
     17627 MEMB     153      SAPS     C316     CTL2    -0.180000       12.0110           0
     17628 MEMB     153      SAPS     H16X     HAL2     0.900000E-01   1.00800           0
     17629 MEMB     153      SAPS     H16Y     HAL2     0.900000E-01   1.00800           0
     17630 MEMB     153      SAPS     C317     CTL2    -0.180000       12.0110           0
     17631 MEMB     153      SAPS     H17X     HAL2     0.900000E-01   1.00800           0
     17632 MEMB     153      SAPS     H17Y     HAL2     0.900000E-01   1.00800           0
     17633 MEMB     153      SAPS     C318     CTL3    -0.270000       12.0110           0
     17634 MEMB     153      SAPS     H18X     HAL3     0.900000E-01   1.00800           0
     17635 MEMB     153      SAPS     H18Y     HAL3     0.900000E-01   1.00800           0
     17636 MEMB     153      SAPS     H18Z     HAL3     0.900000E-01   1.00800           0
     17637 MEMB     154      SAPE     N        NH3L    -0.300000       14.0070           0
     17638 MEMB     154      SAPE     HN1      HCL      0.330000       1.00800           0
     17639 MEMB     154      SAPE     HN2      HCL      0.330000       1.00800           0
     17640 MEMB     154      SAPE     HN3      HCL      0.330000       1.00800           0
     17641 MEMB     154      SAPE     C12      CTL2     0.130000       12.0110           0
     17642 MEMB     154      SAPE     H12A     HAL2     0.900000E-01   1.00800           0
     17643 MEMB     154      SAPE     H12B     HAL2     0.900000E-01   1.00800           0
     17644 MEMB     154      SAPE     C11      CTL2    -0.800000E-01   12.0110           0
     17645 MEMB     154      SAPE     H11A     HAL2     0.900000E-01   1.00800           0
     17646 MEMB     154      SAPE     H11B     HAL2     0.900000E-01   1.00800           0
     17647 MEMB     154      SAPE     P        PL        1.50000       30.9740           0
     17648 MEMB     154      SAPE     O13      O2L     -0.780000       15.9994           0
     17649 MEMB     154      SAPE     O14      O2L     -0.780000       15.9994           0
     17650 MEMB     154      SAPE     O12      OSLP    -0.570000       15.9994           0
     17651 MEMB     154      SAPE     O11      OSLP    -0.570000       15.9994           0
     17652 MEMB     154      SAPE     C1       CTL2    -0.800000E-01   12.0110           0
     17653 MEMB     154      SAPE     HA       HAL2     0.900000E-01   1.00800           0
     17654 MEMB     154      SAPE     HB       HAL2     0.900000E-01   1.00800           0
     17655 MEMB     154      SAPE     C2       CTL1     0.170000       12.0110           0
     17656 MEMB     154      SAPE     HS       HAL1     0.900000E-01   1.00800           0
     17657 MEMB     154      SAPE     O21      OSL     -0.490000       15.9994           0
     17658 MEMB     154      SAPE     C21      CL       0.900000       12.0110           0
     17659 MEMB     154      SAPE     O22      OBL     -0.630000       15.9994           0
     17660 MEMB     154      SAPE     C22      CTL2    -0.220000       12.0110           0
     17661 MEMB     154      SAPE     H2R      HAL2     0.900000E-01   1.00800           0
     17662 MEMB     154      SAPE     H2S      HAL2     0.900000E-01   1.00800           0
     17663 MEMB     154      SAPE     C3       CTL2     0.800000E-01   12.0110           0
     17664 MEMB     154      SAPE     HX       HAL2     0.900000E-01   1.00800           0
     17665 MEMB     154      SAPE     HY       HAL2     0.900000E-01   1.00800           0
     17666 MEMB     154      SAPE     O31      OSL     -0.490000       15.9994           0
     17667 MEMB     154      SAPE     C31      CL       0.900000       12.0110           0
     17668 MEMB     154      SAPE     O32      OBL     -0.630000       15.9994           0
     17669 MEMB     154      SAPE     C32      CTL2    -0.220000       12.0110           0
     17670 MEMB     154      SAPE     H2X      HAL2     0.900000E-01   1.00800           0
     17671 MEMB     154      SAPE     H2Y      HAL2     0.900000E-01   1.00800           0
     17672 MEMB     154      SAPE     C23      CTL2    -0.180000       12.0110           0
     17673 MEMB     154      SAPE     H3R      HAL2     0.900000E-01   1.00800           0
     17674 MEMB     154      SAPE     H3S      HAL2     0.900000E-01   1.00800           0
     17675 MEMB     154      SAPE     C24      CTL2    -0.180000       12.0110           0
     17676 MEMB     154      SAPE     H4R      HAL2     0.900000E-01   1.00800           0
     17677 MEMB     154      SAPE     H4S      HAL2     0.900000E-01   1.00800           0
     17678 MEMB     154      SAPE     C25      CEL1    -0.150000       12.0110           0
     17679 MEMB     154      SAPE     H5R      HEL1     0.150000       1.00800           0
     17680 MEMB     154      SAPE     C26      CEL1    -0.150000       12.0110           0
     17681 MEMB     154      SAPE     H6R      HEL1     0.150000       1.00800           0
     17682 MEMB     154      SAPE     C27      CTL2    -0.180000       12.0110           0
     17683 MEMB     154      SAPE     H7R      HAL2     0.900000E-01   1.00800           0
     17684 MEMB     154      SAPE     H7S      HAL2     0.900000E-01   1.00800           0
     17685 MEMB     154      SAPE     C28      CEL1    -0.150000       12.0110           0
     17686 MEMB     154      SAPE     H8R      HEL1     0.150000       1.00800           0
     17687 MEMB     154      SAPE     C29      CEL1    -0.150000       12.0110           0
     17688 MEMB     154      SAPE     H9R      HEL1     0.150000       1.00800           0
     17689 MEMB     154      SAPE     C210     CTL2    -0.180000       12.0110           0
     17690 MEMB     154      SAPE     H10R     HAL2     0.900000E-01   1.00800           0
     17691 MEMB     154      SAPE     H10S     HAL2     0.900000E-01   1.00800           0
     17692 MEMB     154      SAPE     C211     CEL1    -0.150000       12.0110           0
     17693 MEMB     154      SAPE     H11R     HEL1     0.150000       1.00800           0
     17694 MEMB     154      SAPE     C212     CEL1    -0.150000       12.0110           0
     17695 MEMB     154      SAPE     H12R     HEL1     0.150000       1.00800           0
     17696 MEMB     154      SAPE     C213     CTL2    -0.180000       12.0110           0
     17697 MEMB     154      SAPE     H13R     HAL2     0.900000E-01   1.00800           0
     17698 MEMB     154      SAPE     H13S     HAL2     0.900000E-01   1.00800           0
     17699 MEMB     154      SAPE     C214     CEL1    -0.150000       12.0110           0
     17700 MEMB     154      SAPE     H14R     HEL1     0.150000       1.00800           0
     17701 MEMB     154      SAPE     C215     CEL1    -0.150000       12.0110           0
     17702 MEMB     154      SAPE     H15R     HEL1     0.150000       1.00800           0
     17703 MEMB     154      SAPE     C216     CTL2    -0.180000       12.0110           0
     17704 MEMB     154      SAPE     H16R     HAL2     0.900000E-01   1.00800           0
     17705 MEMB     154      SAPE     H16S     HAL2     0.900000E-01   1.00800           0
     17706 MEMB     154      SAPE     C217     CTL2    -0.180000       12.0110           0
     17707 MEMB     154      SAPE     H17R     HAL2     0.900000E-01   1.00800           0
     17708 MEMB     154      SAPE     H17S     HAL2     0.900000E-01   1.00800           0
     17709 MEMB     154      SAPE     C218     CTL2    -0.180000       12.0110           0
     17710 MEMB     154      SAPE     H18R     HAL2     0.900000E-01   1.00800           0
     17711 MEMB     154      SAPE     H18S     HAL2     0.900000E-01   1.00800           0
     17712 MEMB     154      SAPE     C219     CTL2    -0.180000       12.0110           0
     17713 MEMB     154      SAPE     H19R     HAL2     0.900000E-01   1.00800           0
     17714 MEMB     154      SAPE     H19S     HAL2     0.900000E-01   1.00800           0
     17715 MEMB     154      SAPE     C220     CTL3    -0.270000       12.0110           0
     17716 MEMB     154      SAPE     H20R     HAL3     0.900000E-01   1.00800           0
     17717 MEMB     154      SAPE     H20S     HAL3     0.900000E-01   1.00800           0
     17718 MEMB     154      SAPE     H20T     HAL3     0.900000E-01   1.00800           0
     17719 MEMB     154      SAPE     C33      CTL2    -0.180000       12.0110           0
     17720 MEMB     154      SAPE     H3X      HAL2     0.900000E-01   1.00800           0
     17721 MEMB     154      SAPE     H3Y      HAL2     0.900000E-01   1.00800           0
     17722 MEMB     154      SAPE     C34      CTL2    -0.180000       12.0110           0
     17723 MEMB     154      SAPE     H4X      HAL2     0.900000E-01   1.00800           0
     17724 MEMB     154      SAPE     H4Y      HAL2     0.900000E-01   1.00800           0
     17725 MEMB     154      SAPE     C35      CTL2    -0.180000       12.0110           0
     17726 MEMB     154      SAPE     H5X      HAL2     0.900000E-01   1.00800           0
     17727 MEMB     154      SAPE     H5Y      HAL2     0.900000E-01   1.00800           0
     17728 MEMB     154      SAPE     C36      CTL2    -0.180000       12.0110           0
     17729 MEMB     154      SAPE     H6X      HAL2     0.900000E-01   1.00800           0
     17730 MEMB     154      SAPE     H6Y      HAL2     0.900000E-01   1.00800           0
     17731 MEMB     154      SAPE     C37      CTL2    -0.180000       12.0110           0
     17732 MEMB     154      SAPE     H7X      HAL2     0.900000E-01   1.00800           0
     17733 MEMB     154      SAPE     H7Y      HAL2     0.900000E-01   1.00800           0
     17734 MEMB     154      SAPE     C38      CTL2    -0.180000       12.0110           0
     17735 MEMB     154      SAPE     H8X      HAL2     0.900000E-01   1.00800           0
     17736 MEMB     154      SAPE     H8Y      HAL2     0.900000E-01   1.00800           0
     17737 MEMB     154      SAPE     C39      CTL2    -0.180000       12.0110           0
     17738 MEMB     154      SAPE     H9X      HAL2     0.900000E-01   1.00800           0
     17739 MEMB     154      SAPE     H9Y      HAL2     0.900000E-01   1.00800           0
     17740 MEMB     154      SAPE     C310     CTL2    -0.180000       12.0110           0
     17741 MEMB     154      SAPE     H10X     HAL2     0.900000E-01   1.00800           0
     17742 MEMB     154      SAPE     H10Y     HAL2     0.900000E-01   1.00800           0
     17743 MEMB     154      SAPE     C311     CTL2    -0.180000       12.0110           0
     17744 MEMB     154      SAPE     H11X     HAL2     0.900000E-01   1.00800           0
     17745 MEMB     154      SAPE     H11Y     HAL2     0.900000E-01   1.00800           0
     17746 MEMB     154      SAPE     C312     CTL2    -0.180000       12.0110           0
     17747 MEMB     154      SAPE     H12X     HAL2     0.900000E-01   1.00800           0
     17748 MEMB     154      SAPE     H12Y     HAL2     0.900000E-01   1.00800           0
     17749 MEMB     154      SAPE     C313     CTL2    -0.180000       12.0110           0
     17750 MEMB     154      SAPE     H13X     HAL2     0.900000E-01   1.00800           0
     17751 MEMB     154      SAPE     H13Y     HAL2     0.900000E-01   1.00800           0
     17752 MEMB     154      SAPE     C314     CTL2    -0.180000       12.0110           0
     17753 MEMB     154      SAPE     H14X     HAL2     0.900000E-01   1.00800           0
     17754 MEMB     154      SAPE     H14Y     HAL2     0.900000E-01   1.00800           0
     17755 MEMB     154      SAPE     C315     CTL2    -0.180000       12.0110           0
     17756 MEMB     154      SAPE     H15X     HAL2     0.900000E-01   1.00800           0
     17757 MEMB     154      SAPE     H15Y     HAL2     0.900000E-01   1.00800           0
     17758 MEMB     154      SAPE     C316     CTL2    -0.180000       12.0110           0
     17759 MEMB     154      SAPE     H16X     HAL2     0.900000E-01   1.00800           0
     17760 MEMB     154      SAPE     H16Y     HAL2     0.900000E-01   1.00800           0
     17761 MEMB     154      SAPE     C317     CTL2    -0.180000       12.0110           0
     17762 MEMB     154      SAPE     H17X     HAL2     0.900000E-01   1.00800           0
     17763 MEMB     154      SAPE     H17Y     HAL2     0.900000E-01   1.00800           0
     17764 MEMB     154      SAPE     C318     CTL3    -0.270000       12.0110           0
     17765 MEMB     154      SAPE     H18X     HAL3     0.900000E-01   1.00800           0
     17766 MEMB     154      SAPE     H18Y     HAL3     0.900000E-01   1.00800           0
     17767 MEMB     154      SAPE     H18Z     HAL3     0.900000E-01   1.00800           0
     17768 MEMB     155      POPC     N        NTL     -0.600000       14.0070           0
     17769 MEMB     155      POPC     C12      CTL2    -0.100000       12.0110           0
     17770 MEMB     155      POPC     H12A     HL       0.250000       1.00800           0
     17771 MEMB     155      POPC     H12B     HL       0.250000       1.00800           0
     17772 MEMB     155      POPC     C13      CTL5    -0.350000       12.0110           0
     17773 MEMB     155      POPC     H13A     HL       0.250000       1.00800           0
     17774 MEMB     155      POPC     H13B     HL       0.250000       1.00800           0
     17775 MEMB     155      POPC     H13C     HL       0.250000       1.00800           0
     17776 MEMB     155      POPC     C14      CTL5    -0.350000       12.0110           0
     17777 MEMB     155      POPC     H14A     HL       0.250000       1.00800           0
     17778 MEMB     155      POPC     H14B     HL       0.250000       1.00800           0
     17779 MEMB     155      POPC     H14C     HL       0.250000       1.00800           0
     17780 MEMB     155      POPC     C15      CTL5    -0.350000       12.0110           0
     17781 MEMB     155      POPC     H15A     HL       0.250000       1.00800           0
     17782 MEMB     155      POPC     H15B     HL       0.250000       1.00800           0
     17783 MEMB     155      POPC     H15C     HL       0.250000       1.00800           0
     17784 MEMB     155      POPC     C11      CTL2    -0.800000E-01   12.0110           0
     17785 MEMB     155      POPC     H11A     HAL2     0.900000E-01   1.00800           0
     17786 MEMB     155      POPC     H11B     HAL2     0.900000E-01   1.00800           0
     17787 MEMB     155      POPC     P        PL        1.50000       30.9740           0
     17788 MEMB     155      POPC     O13      O2L     -0.780000       15.9994           0
     17789 MEMB     155      POPC     O14      O2L     -0.780000       15.9994           0
     17790 MEMB     155      POPC     O12      OSLP    -0.570000       15.9994           0
     17791 MEMB     155      POPC     O11      OSLP    -0.570000       15.9994           0
     17792 MEMB     155      POPC     C1       CTL2    -0.800000E-01   12.0110           0
     17793 MEMB     155      POPC     HA       HAL2     0.900000E-01   1.00800           0
     17794 MEMB     155      POPC     HB       HAL2     0.900000E-01   1.00800           0
     17795 MEMB     155      POPC     C2       CTL1     0.170000       12.0110           0
     17796 MEMB     155      POPC     HS       HAL1     0.900000E-01   1.00800           0
     17797 MEMB     155      POPC     O21      OSL     -0.490000       15.9994           0
     17798 MEMB     155      POPC     C21      CL       0.900000       12.0110           0
     17799 MEMB     155      POPC     O22      OBL     -0.630000       15.9994           0
     17800 MEMB     155      POPC     C22      CTL2    -0.220000       12.0110           0
     17801 MEMB     155      POPC     H2R      HAL2     0.900000E-01   1.00800           0
     17802 MEMB     155      POPC     H2S      HAL2     0.900000E-01   1.00800           0
     17803 MEMB     155      POPC     C3       CTL2     0.800000E-01   12.0110           0
     17804 MEMB     155      POPC     HX       HAL2     0.900000E-01   1.00800           0
     17805 MEMB     155      POPC     HY       HAL2     0.900000E-01   1.00800           0
     17806 MEMB     155      POPC     O31      OSL     -0.490000       15.9994           0
     17807 MEMB     155      POPC     C31      CL       0.900000       12.0110           0
     17808 MEMB     155      POPC     O32      OBL     -0.630000       15.9994           0
     17809 MEMB     155      POPC     C32      CTL2    -0.220000       12.0110           0
     17810 MEMB     155      POPC     H2X      HAL2     0.900000E-01   1.00800           0
     17811 MEMB     155      POPC     H2Y      HAL2     0.900000E-01   1.00800           0
     17812 MEMB     155      POPC     C23      CTL2    -0.180000       12.0110           0
     17813 MEMB     155      POPC     H3R      HAL2     0.900000E-01   1.00800           0
     17814 MEMB     155      POPC     H3S      HAL2     0.900000E-01   1.00800           0
     17815 MEMB     155      POPC     C24      CTL2    -0.180000       12.0110           0
     17816 MEMB     155      POPC     H4R      HAL2     0.900000E-01   1.00800           0
     17817 MEMB     155      POPC     H4S      HAL2     0.900000E-01   1.00800           0
     17818 MEMB     155      POPC     C25      CTL2    -0.180000       12.0110           0
     17819 MEMB     155      POPC     H5R      HAL2     0.900000E-01   1.00800           0
     17820 MEMB     155      POPC     H5S      HAL2     0.900000E-01   1.00800           0
     17821 MEMB     155      POPC     C26      CTL2    -0.180000       12.0110           0
     17822 MEMB     155      POPC     H6R      HAL2     0.900000E-01   1.00800           0
     17823 MEMB     155      POPC     H6S      HAL2     0.900000E-01   1.00800           0
     17824 MEMB     155      POPC     C27      CTL2    -0.180000       12.0110           0
     17825 MEMB     155      POPC     H7R      HAL2     0.900000E-01   1.00800           0
     17826 MEMB     155      POPC     H7S      HAL2     0.900000E-01   1.00800           0
     17827 MEMB     155      POPC     C28      CTL2    -0.180000       12.0110           0
     17828 MEMB     155      POPC     H8R      HAL2     0.900000E-01   1.00800           0
     17829 MEMB     155      POPC     H8S      HAL2     0.900000E-01   1.00800           0
     17830 MEMB     155      POPC     C29      CEL1    -0.150000       12.0110           0
     17831 MEMB     155      POPC     H91      HEL1     0.150000       1.00800           0
     17832 MEMB     155      POPC     C210     CEL1    -0.150000       12.0110           0
     17833 MEMB     155      POPC     H101     HEL1     0.150000       1.00800           0
     17834 MEMB     155      POPC     C211     CTL2    -0.180000       12.0110           0
     17835 MEMB     155      POPC     H11R     HAL2     0.900000E-01   1.00800           0
     17836 MEMB     155      POPC     H11S     HAL2     0.900000E-01   1.00800           0
     17837 MEMB     155      POPC     C212     CTL2    -0.180000       12.0110           0
     17838 MEMB     155      POPC     H12R     HAL2     0.900000E-01   1.00800           0
     17839 MEMB     155      POPC     H12S     HAL2     0.900000E-01   1.00800           0
     17840 MEMB     155      POPC     C213     CTL2    -0.180000       12.0110           0
     17841 MEMB     155      POPC     H13R     HAL2     0.900000E-01   1.00800           0
     17842 MEMB     155      POPC     H13S     HAL2     0.900000E-01   1.00800           0
     17843 MEMB     155      POPC     C214     CTL2    -0.180000       12.0110           0
     17844 MEMB     155      POPC     H14R     HAL2     0.900000E-01   1.00800           0
     17845 MEMB     155      POPC     H14S     HAL2     0.900000E-01   1.00800           0
     17846 MEMB     155      POPC     C215     CTL2    -0.180000       12.0110           0
     17847 MEMB     155      POPC     H15R     HAL2     0.900000E-01   1.00800           0
     17848 MEMB     155      POPC     H15S     HAL2     0.900000E-01   1.00800           0
     17849 MEMB     155      POPC     C216     CTL2    -0.180000       12.0110           0
     17850 MEMB     155      POPC     H16R     HAL2     0.900000E-01   1.00800           0
     17851 MEMB     155      POPC     H16S     HAL2     0.900000E-01   1.00800           0
     17852 MEMB     155      POPC     C217     CTL2    -0.180000       12.0110           0
     17853 MEMB     155      POPC     H17R     HAL2     0.900000E-01   1.00800           0
     17854 MEMB     155      POPC     H17S     HAL2     0.900000E-01   1.00800           0
     17855 MEMB     155      POPC     C218     CTL3    -0.270000       12.0110           0
     17856 MEMB     155      POPC     H18R     HAL3     0.900000E-01   1.00800           0
     17857 MEMB     155      POPC     H18S     HAL3     0.900000E-01   1.00800           0
     17858 MEMB     155      POPC     H18T     HAL3     0.900000E-01   1.00800           0
     17859 MEMB     155      POPC     C33      CTL2    -0.180000       12.0110           0
     17860 MEMB     155      POPC     H3X      HAL2     0.900000E-01   1.00800           0
     17861 MEMB     155      POPC     H3Y      HAL2     0.900000E-01   1.00800           0
     17862 MEMB     155      POPC     C34      CTL2    -0.180000       12.0110           0
     17863 MEMB     155      POPC     H4X      HAL2     0.900000E-01   1.00800           0
     17864 MEMB     155      POPC     H4Y      HAL2     0.900000E-01   1.00800           0
     17865 MEMB     155      POPC     C35      CTL2    -0.180000       12.0110           0
     17866 MEMB     155      POPC     H5X      HAL2     0.900000E-01   1.00800           0
     17867 MEMB     155      POPC     H5Y      HAL2     0.900000E-01   1.00800           0
     17868 MEMB     155      POPC     C36      CTL2    -0.180000       12.0110           0
     17869 MEMB     155      POPC     H6X      HAL2     0.900000E-01   1.00800           0
     17870 MEMB     155      POPC     H6Y      HAL2     0.900000E-01   1.00800           0
     17871 MEMB     155      POPC     C37      CTL2    -0.180000       12.0110           0
     17872 MEMB     155      POPC     H7X      HAL2     0.900000E-01   1.00800           0
     17873 MEMB     155      POPC     H7Y      HAL2     0.900000E-01   1.00800           0
     17874 MEMB     155      POPC     C38      CTL2    -0.180000       12.0110           0
     17875 MEMB     155      POPC     H8X      HAL2     0.900000E-01   1.00800           0
     17876 MEMB     155      POPC     H8Y      HAL2     0.900000E-01   1.00800           0
     17877 MEMB     155      POPC     C39      CTL2    -0.180000       12.0110           0
     17878 MEMB     155      POPC     H9X      HAL2     0.900000E-01   1.00800           0
     17879 MEMB     155      POPC     H9Y      HAL2     0.900000E-01   1.00800           0
     17880 MEMB     155      POPC     C310     CTL2    -0.180000       12.0110           0
     17881 MEMB     155      POPC     H10X     HAL2     0.900000E-01   1.00800           0
     17882 MEMB     155      POPC     H10Y     HAL2     0.900000E-01   1.00800           0
     17883 MEMB     155      POPC     C311     CTL2    -0.180000       12.0110           0
     17884 MEMB     155      POPC     H11X     HAL2     0.900000E-01   1.00800           0
     17885 MEMB     155      POPC     H11Y     HAL2     0.900000E-01   1.00800           0
     17886 MEMB     155      POPC     C312     CTL2    -0.180000       12.0110           0
     17887 MEMB     155      POPC     H12X     HAL2     0.900000E-01   1.00800           0
     17888 MEMB     155      POPC     H12Y     HAL2     0.900000E-01   1.00800           0
     17889 MEMB     155      POPC     C313     CTL2    -0.180000       12.0110           0
     17890 MEMB     155      POPC     H13X     HAL2     0.900000E-01   1.00800           0
     17891 MEMB     155      POPC     H13Y     HAL2     0.900000E-01   1.00800           0
     17892 MEMB     155      POPC     C314     CTL2    -0.180000       12.0110           0
     17893 MEMB     155      POPC     H14X     HAL2     0.900000E-01   1.00800           0
     17894 MEMB     155      POPC     H14Y     HAL2     0.900000E-01   1.00800           0
     17895 MEMB     155      POPC     C315     CTL2    -0.180000       12.0110           0
     17896 MEMB     155      POPC     H15X     HAL2     0.900000E-01   1.00800           0
     17897 MEMB     155      POPC     H15Y     HAL2     0.900000E-01   1.00800           0
     17898 MEMB     155      POPC     C316     CTL3    -0.270000       12.0110           0
     17899 MEMB     155      POPC     H16X     HAL3     0.900000E-01   1.00800           0
     17900 MEMB     155      POPC     H16Y     HAL3     0.900000E-01   1.00800           0
     17901 MEMB     155      POPC     H16Z     HAL3     0.900000E-01   1.00800           0
     17902 MEMB     156      SOPE     N        NH3L    -0.300000       14.0070           0
     17903 MEMB     156      SOPE     HN1      HCL      0.330000       1.00800           0
     17904 MEMB     156      SOPE     HN2      HCL      0.330000       1.00800           0
     17905 MEMB     156      SOPE     HN3      HCL      0.330000       1.00800           0
     17906 MEMB     156      SOPE     C12      CTL2     0.130000       12.0110           0
     17907 MEMB     156      SOPE     H12A     HAL2     0.900000E-01   1.00800           0
     17908 MEMB     156      SOPE     H12B     HAL2     0.900000E-01   1.00800           0
     17909 MEMB     156      SOPE     C11      CTL2    -0.800000E-01   12.0110           0
     17910 MEMB     156      SOPE     H11A     HAL2     0.900000E-01   1.00800           0
     17911 MEMB     156      SOPE     H11B     HAL2     0.900000E-01   1.00800           0
     17912 MEMB     156      SOPE     P        PL        1.50000       30.9740           0
     17913 MEMB     156      SOPE     O13      O2L     -0.780000       15.9994           0
     17914 MEMB     156      SOPE     O14      O2L     -0.780000       15.9994           0
     17915 MEMB     156      SOPE     O12      OSLP    -0.570000       15.9994           0
     17916 MEMB     156      SOPE     O11      OSLP    -0.570000       15.9994           0
     17917 MEMB     156      SOPE     C1       CTL2    -0.800000E-01   12.0110           0
     17918 MEMB     156      SOPE     HA       HAL2     0.900000E-01   1.00800           0
     17919 MEMB     156      SOPE     HB       HAL2     0.900000E-01   1.00800           0
     17920 MEMB     156      SOPE     C2       CTL1     0.170000       12.0110           0
     17921 MEMB     156      SOPE     HS       HAL1     0.900000E-01   1.00800           0
     17922 MEMB     156      SOPE     O21      OSL     -0.490000       15.9994           0
     17923 MEMB     156      SOPE     C21      CL       0.900000       12.0110           0
     17924 MEMB     156      SOPE     O22      OBL     -0.630000       15.9994           0
     17925 MEMB     156      SOPE     C22      CTL2    -0.220000       12.0110           0
     17926 MEMB     156      SOPE     H2R      HAL2     0.900000E-01   1.00800           0
     17927 MEMB     156      SOPE     H2S      HAL2     0.900000E-01   1.00800           0
     17928 MEMB     156      SOPE     C3       CTL2     0.800000E-01   12.0110           0
     17929 MEMB     156      SOPE     HX       HAL2     0.900000E-01   1.00800           0
     17930 MEMB     156      SOPE     HY       HAL2     0.900000E-01   1.00800           0
     17931 MEMB     156      SOPE     O31      OSL     -0.490000       15.9994           0
     17932 MEMB     156      SOPE     C31      CL       0.900000       12.0110           0
     17933 MEMB     156      SOPE     O32      OBL     -0.630000       15.9994           0
     17934 MEMB     156      SOPE     C32      CTL2    -0.220000       12.0110           0
     17935 MEMB     156      SOPE     H2X      HAL2     0.900000E-01   1.00800           0
     17936 MEMB     156      SOPE     H2Y      HAL2     0.900000E-01   1.00800           0
     17937 MEMB     156      SOPE     C23      CTL2    -0.180000       12.0110           0
     17938 MEMB     156      SOPE     H3R      HAL2     0.900000E-01   1.00800           0
     17939 MEMB     156      SOPE     H3S      HAL2     0.900000E-01   1.00800           0
     17940 MEMB     156      SOPE     C24      CTL2    -0.180000       12.0110           0
     17941 MEMB     156      SOPE     H4R      HAL2     0.900000E-01   1.00800           0
     17942 MEMB     156      SOPE     H4S      HAL2     0.900000E-01   1.00800           0
     17943 MEMB     156      SOPE     C25      CTL2    -0.180000       12.0110           0
     17944 MEMB     156      SOPE     H5R      HAL2     0.900000E-01   1.00800           0
     17945 MEMB     156      SOPE     H5S      HAL2     0.900000E-01   1.00800           0
     17946 MEMB     156      SOPE     C26      CTL2    -0.180000       12.0110           0
     17947 MEMB     156      SOPE     H6R      HAL2     0.900000E-01   1.00800           0
     17948 MEMB     156      SOPE     H6S      HAL2     0.900000E-01   1.00800           0
     17949 MEMB     156      SOPE     C27      CTL2    -0.180000       12.0110           0
     17950 MEMB     156      SOPE     H7R      HAL2     0.900000E-01   1.00800           0
     17951 MEMB     156      SOPE     H7S      HAL2     0.900000E-01   1.00800           0
     17952 MEMB     156      SOPE     C28      CTL2    -0.180000       12.0110           0
     17953 MEMB     156      SOPE     H8R      HAL2     0.900000E-01   1.00800           0
     17954 MEMB     156      SOPE     H8S      HAL2     0.900000E-01   1.00800           0
     17955 MEMB     156      SOPE     C29      CEL1    -0.150000       12.0110           0
     17956 MEMB     156      SOPE     H91      HEL1     0.150000       1.00800           0
     17957 MEMB     156      SOPE     C210     CEL1    -0.150000       12.0110           0
     17958 MEMB     156      SOPE     H101     HEL1     0.150000       1.00800           0
     17959 MEMB     156      SOPE     C211     CTL2    -0.180000       12.0110           0
     17960 MEMB     156      SOPE     H11R     HAL2     0.900000E-01   1.00800           0
     17961 MEMB     156      SOPE     H11S     HAL2     0.900000E-01   1.00800           0
     17962 MEMB     156      SOPE     C212     CTL2    -0.180000       12.0110           0
     17963 MEMB     156      SOPE     H12R     HAL2     0.900000E-01   1.00800           0
     17964 MEMB     156      SOPE     H12S     HAL2     0.900000E-01   1.00800           0
     17965 MEMB     156      SOPE     C213     CTL2    -0.180000       12.0110           0
     17966 MEMB     156      SOPE     H13R     HAL2     0.900000E-01   1.00800           0
     17967 MEMB     156      SOPE     H13S     HAL2     0.900000E-01   1.00800           0
     17968 MEMB     156      SOPE     C214     CTL2    -0.180000       12.0110           0
     17969 MEMB     156      SOPE     H14R     HAL2     0.900000E-01   1.00800           0
     17970 MEMB     156      SOPE     H14S     HAL2     0.900000E-01   1.00800           0
     17971 MEMB     156      SOPE     C215     CTL2    -0.180000       12.0110           0
     17972 MEMB     156      SOPE     H15R     HAL2     0.900000E-01   1.00800           0
     17973 MEMB     156      SOPE     H15S     HAL2     0.900000E-01   1.00800           0
     17974 MEMB     156      SOPE     C216     CTL2    -0.180000       12.0110           0
     17975 MEMB     156      SOPE     H16R     HAL2     0.900000E-01   1.00800           0
     17976 MEMB     156      SOPE     H16S     HAL2     0.900000E-01   1.00800           0
     17977 MEMB     156      SOPE     C217     CTL2    -0.180000       12.0110           0
     17978 MEMB     156      SOPE     H17R     HAL2     0.900000E-01   1.00800           0
     17979 MEMB     156      SOPE     H17S     HAL2     0.900000E-01   1.00800           0
     17980 MEMB     156      SOPE     C218     CTL3    -0.270000       12.0110           0
     17981 MEMB     156      SOPE     H18R     HAL3     0.900000E-01   1.00800           0
     17982 MEMB     156      SOPE     H18S     HAL3     0.900000E-01   1.00800           0
     17983 MEMB     156      SOPE     H18T     HAL3     0.900000E-01   1.00800           0
     17984 MEMB     156      SOPE     C33      CTL2    -0.180000       12.0110           0
     17985 MEMB     156      SOPE     H3X      HAL2     0.900000E-01   1.00800           0
     17986 MEMB     156      SOPE     H3Y      HAL2     0.900000E-01   1.00800           0
     17987 MEMB     156      SOPE     C34      CTL2    -0.180000       12.0110           0
     17988 MEMB     156      SOPE     H4X      HAL2     0.900000E-01   1.00800           0
     17989 MEMB     156      SOPE     H4Y      HAL2     0.900000E-01   1.00800           0
     17990 MEMB     156      SOPE     C35      CTL2    -0.180000       12.0110           0
     17991 MEMB     156      SOPE     H5X      HAL2     0.900000E-01   1.00800           0
     17992 MEMB     156      SOPE     H5Y      HAL2     0.900000E-01   1.00800           0
     17993 MEMB     156      SOPE     C36      CTL2    -0.180000       12.0110           0
     17994 MEMB     156      SOPE     H6X      HAL2     0.900000E-01   1.00800           0
     17995 MEMB     156      SOPE     H6Y      HAL2     0.900000E-01   1.00800           0
     17996 MEMB     156      SOPE     C37      CTL2    -0.180000       12.0110           0
     17997 MEMB     156      SOPE     H7X      HAL2     0.900000E-01   1.00800           0
     17998 MEMB     156      SOPE     H7Y      HAL2     0.900000E-01   1.00800           0
     17999 MEMB     156      SOPE     C38      CTL2    -0.180000       12.0110           0
     18000 MEMB     156      SOPE     H8X      HAL2     0.900000E-01   1.00800           0
     18001 MEMB     156      SOPE     H8Y      HAL2     0.900000E-01   1.00800           0
     18002 MEMB     156      SOPE     C39      CTL2    -0.180000       12.0110           0
     18003 MEMB     156      SOPE     H9X      HAL2     0.900000E-01   1.00800           0
     18004 MEMB     156      SOPE     H9Y      HAL2     0.900000E-01   1.00800           0
     18005 MEMB     156      SOPE     C310     CTL2    -0.180000       12.0110           0
     18006 MEMB     156      SOPE     H10X     HAL2     0.900000E-01   1.00800           0
     18007 MEMB     156      SOPE     H10Y     HAL2     0.900000E-01   1.00800           0
     18008 MEMB     156      SOPE     C311     CTL2    -0.180000       12.0110           0
     18009 MEMB     156      SOPE     H11X     HAL2     0.900000E-01   1.00800           0
     18010 MEMB     156      SOPE     H11Y     HAL2     0.900000E-01   1.00800           0
     18011 MEMB     156      SOPE     C312     CTL2    -0.180000       12.0110           0
     18012 MEMB     156      SOPE     H12X     HAL2     0.900000E-01   1.00800           0
     18013 MEMB     156      SOPE     H12Y     HAL2     0.900000E-01   1.00800           0
     18014 MEMB     156      SOPE     C313     CTL2    -0.180000       12.0110           0
     18015 MEMB     156      SOPE     H13X     HAL2     0.900000E-01   1.00800           0
     18016 MEMB     156      SOPE     H13Y     HAL2     0.900000E-01   1.00800           0
     18017 MEMB     156      SOPE     C314     CTL2    -0.180000       12.0110           0
     18018 MEMB     156      SOPE     H14X     HAL2     0.900000E-01   1.00800           0
     18019 MEMB     156      SOPE     H14Y     HAL2     0.900000E-01   1.00800           0
     18020 MEMB     156      SOPE     C315     CTL2    -0.180000       12.0110           0
     18021 MEMB     156      SOPE     H15X     HAL2     0.900000E-01   1.00800           0
     18022 MEMB     156      SOPE     H15Y     HAL2     0.900000E-01   1.00800           0
     18023 MEMB     156      SOPE     C316     CTL2    -0.180000       12.0110           0
     18024 MEMB     156      SOPE     H16X     HAL2     0.900000E-01   1.00800           0
     18025 MEMB     156      SOPE     H16Y     HAL2     0.900000E-01   1.00800           0
     18026 MEMB     156      SOPE     C317     CTL2    -0.180000       12.0110           0
     18027 MEMB     156      SOPE     H17X     HAL2     0.900000E-01   1.00800           0
     18028 MEMB     156      SOPE     H17Y     HAL2     0.900000E-01   1.00800           0
     18029 MEMB     156      SOPE     C318     CTL3    -0.270000       12.0110           0
     18030 MEMB     156      SOPE     H18X     HAL3     0.900000E-01   1.00800           0
     18031 MEMB     156      SOPE     H18Y     HAL3     0.900000E-01   1.00800           0
     18032 MEMB     156      SOPE     H18Z     HAL3     0.900000E-01   1.00800           0
     18033 MEMB     157      CHL1     C3       CRL1     0.140000       12.0110           0
     18034 MEMB     157      CHL1     H3       HGA1     0.900000E-01   1.00800           0
     18035 MEMB     157      CHL1     O3       OHL     -0.660000       15.9994           0
     18036 MEMB     157      CHL1     H3'      HOL      0.430000       1.00800           0
     18037 MEMB     157      CHL1     C4       CRL2    -0.180000       12.0110           0
     18038 MEMB     157      CHL1     H4A      HGA2     0.900000E-01   1.00800           0
     18039 MEMB     157      CHL1     H4B      HGA2     0.900000E-01   1.00800           0
     18040 MEMB     157      CHL1     C5       CEL1      0.00000       12.0110           0
     18041 MEMB     157      CHL1     C6       CEL1    -0.150000       12.0110           0
     18042 MEMB     157      CHL1     H6       HEL1     0.150000       1.00800           0
     18043 MEMB     157      CHL1     C7       CRL2    -0.180000       12.0110           0
     18044 MEMB     157      CHL1     H7A      HGA2     0.900000E-01   1.00800           0
     18045 MEMB     157      CHL1     H7B      HGA2     0.900000E-01   1.00800           0
     18046 MEMB     157      CHL1     C8       CRL1    -0.900000E-01   12.0110           0
     18047 MEMB     157      CHL1     H8       HGA1     0.900000E-01   1.00800           0
     18048 MEMB     157      CHL1     C14      CRL1    -0.900000E-01   12.0110           0
     18049 MEMB     157      CHL1     H14      HGA1     0.900000E-01   1.00800           0
     18050 MEMB     157      CHL1     C15      CRL2    -0.180000       12.0110           0
     18051 MEMB     157      CHL1     H15A     HGA2     0.900000E-01   1.00800           0
     18052 MEMB     157      CHL1     H15B     HGA2     0.900000E-01   1.00800           0
     18053 MEMB     157      CHL1     C16      CRL2    -0.180000       12.0110           0
     18054 MEMB     157      CHL1     H16A     HGA2     0.900000E-01   1.00800           0
     18055 MEMB     157      CHL1     H16B     HGA2     0.900000E-01   1.00800           0
     18056 MEMB     157      CHL1     C17      CRL1    -0.900000E-01   12.0110           0
     18057 MEMB     157      CHL1     H17      HGA1     0.900000E-01   1.00800           0
     18058 MEMB     157      CHL1     C13      CRL1      0.00000       12.0110           0
     18059 MEMB     157      CHL1     C18      CTL3    -0.270000       12.0110           0
     18060 MEMB     157      CHL1     H18A     HAL3     0.900000E-01   1.00800           0
     18061 MEMB     157      CHL1     H18B     HAL3     0.900000E-01   1.00800           0
     18062 MEMB     157      CHL1     H18C     HAL3     0.900000E-01   1.00800           0
     18063 MEMB     157      CHL1     C12      CRL2    -0.180000       12.0110           0
     18064 MEMB     157      CHL1     H12A     HGA2     0.900000E-01   1.00800           0
     18065 MEMB     157      CHL1     H12B     HGA2     0.900000E-01   1.00800           0
     18066 MEMB     157      CHL1     C11      CRL2    -0.180000       12.0110           0
     18067 MEMB     157      CHL1     H11A     HGA2     0.900000E-01   1.00800           0
     18068 MEMB     157      CHL1     H11B     HGA2     0.900000E-01   1.00800           0
     18069 MEMB     157      CHL1     C9       CRL1    -0.900000E-01   12.0110           0
     18070 MEMB     157      CHL1     H9       HGA1     0.900000E-01   1.00800           0
     18071 MEMB     157      CHL1     C10      CRL1      0.00000       12.0110           0
     18072 MEMB     157      CHL1     C19      CTL3    -0.270000       12.0110           0
     18073 MEMB     157      CHL1     H19A     HAL3     0.900000E-01   1.00800           0
     18074 MEMB     157      CHL1     H19B     HAL3     0.900000E-01   1.00800           0
     18075 MEMB     157      CHL1     H19C     HAL3     0.900000E-01   1.00800           0
     18076 MEMB     157      CHL1     C1       CRL2    -0.180000       12.0110           0
     18077 MEMB     157      CHL1     H1A      HGA2     0.900000E-01   1.00800           0
     18078 MEMB     157      CHL1     H1B      HGA2     0.900000E-01   1.00800           0
     18079 MEMB     157      CHL1     C2       CRL2    -0.180000       12.0110           0
     18080 MEMB     157      CHL1     H2A      HGA2     0.900000E-01   1.00800           0
     18081 MEMB     157      CHL1     H2B      HGA2     0.900000E-01   1.00800           0
     18082 MEMB     157      CHL1     C20      CTL1    -0.900000E-01   12.0110           0
     18083 MEMB     157      CHL1     H20      HAL1     0.900000E-01   1.00800           0
     18084 MEMB     157      CHL1     C21      CTL3    -0.270000       12.0110           0
     18085 MEMB     157      CHL1     H21A     HAL3     0.900000E-01   1.00800           0
     18086 MEMB     157      CHL1     H21B     HAL3     0.900000E-01   1.00800           0
     18087 MEMB     157      CHL1     H21C     HAL3     0.900000E-01   1.00800           0
     18088 MEMB     157      CHL1     C22      CTL2    -0.180000       12.0110           0
     18089 MEMB     157      CHL1     H22A     HAL2     0.900000E-01   1.00800           0
     18090 MEMB     157      CHL1     H22B     HAL2     0.900000E-01   1.00800           0
     18091 MEMB     157      CHL1     C23      CTL2    -0.180000       12.0110           0
     18092 MEMB     157      CHL1     H23A     HAL2     0.900000E-01   1.00800           0
     18093 MEMB     157      CHL1     H23B     HAL2     0.900000E-01   1.00800           0
     18094 MEMB     157      CHL1     C24      CTL2    -0.180000       12.0110           0
     18095 MEMB     157      CHL1     H24A     HAL2     0.900000E-01   1.00800           0
     18096 MEMB     157      CHL1     H24B     HAL2     0.900000E-01   1.00800           0
     18097 MEMB     157      CHL1     C25      CTL1    -0.900000E-01   12.0110           0
     18098 MEMB     157      CHL1     H25      HAL1     0.900000E-01   1.00800           0
     18099 MEMB     157      CHL1     C26      CTL3    -0.270000       12.0110           0
     18100 MEMB     157      CHL1     H26A     HAL3     0.900000E-01   1.00800           0
     18101 MEMB     157      CHL1     H26B     HAL3     0.900000E-01   1.00800           0
     18102 MEMB     157      CHL1     H26C     HAL3     0.900000E-01   1.00800           0
     18103 MEMB     157      CHL1     C27      CTL3    -0.270000       12.0110           0
     18104 MEMB     157      CHL1     H27A     HAL3     0.900000E-01   1.00800           0
     18105 MEMB     157      CHL1     H27B     HAL3     0.900000E-01   1.00800           0
     18106 MEMB     157      CHL1     H27C     HAL3     0.900000E-01   1.00800           0
     18107 MEMB     158      SLPC     N        NTL     -0.600000       14.0070           0
     18108 MEMB     158      SLPC     C13      CTL5    -0.350000       12.0110           0
     18109 MEMB     158      SLPC     H13A     HL       0.250000       1.00800           0
     18110 MEMB     158      SLPC     H13B     HL       0.250000       1.00800           0
     18111 MEMB     158      SLPC     H13C     HL       0.250000       1.00800           0
     18112 MEMB     158      SLPC     C14      CTL5    -0.350000       12.0110           0
     18113 MEMB     158      SLPC     H14A     HL       0.250000       1.00800           0
     18114 MEMB     158      SLPC     H14B     HL       0.250000       1.00800           0
     18115 MEMB     158      SLPC     H14C     HL       0.250000       1.00800           0
     18116 MEMB     158      SLPC     C15      CTL5    -0.350000       12.0110           0
     18117 MEMB     158      SLPC     H15A     HL       0.250000       1.00800           0
     18118 MEMB     158      SLPC     H15B     HL       0.250000       1.00800           0
     18119 MEMB     158      SLPC     H15C     HL       0.250000       1.00800           0
     18120 MEMB     158      SLPC     C12      CTL2    -0.100000       12.0110           0
     18121 MEMB     158      SLPC     H12A     HL       0.250000       1.00800           0
     18122 MEMB     158      SLPC     H12B     HL       0.250000       1.00800           0
     18123 MEMB     158      SLPC     C11      CTL2    -0.800000E-01   12.0110           0
     18124 MEMB     158      SLPC     H11A     HAL2     0.900000E-01   1.00800           0
     18125 MEMB     158      SLPC     H11B     HAL2     0.900000E-01   1.00800           0
     18126 MEMB     158      SLPC     P        PL        1.50000       30.9740           0
     18127 MEMB     158      SLPC     O13      O2L     -0.780000       15.9994           0
     18128 MEMB     158      SLPC     O14      O2L     -0.780000       15.9994           0
     18129 MEMB     158      SLPC     O12      OSLP    -0.570000       15.9994           0
     18130 MEMB     158      SLPC     O11      OSLP    -0.570000       15.9994           0
     18131 MEMB     158      SLPC     C1       CTL2    -0.800000E-01   12.0110           0
     18132 MEMB     158      SLPC     HA       HAL2     0.900000E-01   1.00800           0
     18133 MEMB     158      SLPC     HB       HAL2     0.900000E-01   1.00800           0
     18134 MEMB     158      SLPC     C2       CTL1     0.170000       12.0110           0
     18135 MEMB     158      SLPC     HS       HAL1     0.900000E-01   1.00800           0
     18136 MEMB     158      SLPC     O21      OSL     -0.490000       15.9994           0
     18137 MEMB     158      SLPC     C21      CL       0.900000       12.0110           0
     18138 MEMB     158      SLPC     O22      OBL     -0.630000       15.9994           0
     18139 MEMB     158      SLPC     C22      CTL2    -0.220000       12.0110           0
     18140 MEMB     158      SLPC     H2R      HAL2     0.900000E-01   1.00800           0
     18141 MEMB     158      SLPC     H2S      HAL2     0.900000E-01   1.00800           0
     18142 MEMB     158      SLPC     C3       CTL2     0.800000E-01   12.0110           0
     18143 MEMB     158      SLPC     HX       HAL2     0.900000E-01   1.00800           0
     18144 MEMB     158      SLPC     HY       HAL2     0.900000E-01   1.00800           0
     18145 MEMB     158      SLPC     O31      OSL     -0.490000       15.9994           0
     18146 MEMB     158      SLPC     C31      CL       0.900000       12.0110           0
     18147 MEMB     158      SLPC     O32      OBL     -0.630000       15.9994           0
     18148 MEMB     158      SLPC     C32      CTL2    -0.220000       12.0110           0
     18149 MEMB     158      SLPC     H2X      HAL2     0.900000E-01   1.00800           0
     18150 MEMB     158      SLPC     H2Y      HAL2     0.900000E-01   1.00800           0
     18151 MEMB     158      SLPC     C23      CTL2    -0.180000       12.0110           0
     18152 MEMB     158      SLPC     H3R      HAL2     0.900000E-01   1.00800           0
     18153 MEMB     158      SLPC     H3S      HAL2     0.900000E-01   1.00800           0
     18154 MEMB     158      SLPC     C24      CTL2    -0.180000       12.0110           0
     18155 MEMB     158      SLPC     H4R      HAL2     0.900000E-01   1.00800           0
     18156 MEMB     158      SLPC     H4S      HAL2     0.900000E-01   1.00800           0
     18157 MEMB     158      SLPC     C25      CTL2    -0.180000       12.0110           0
     18158 MEMB     158      SLPC     H5R      HAL2     0.900000E-01   1.00800           0
     18159 MEMB     158      SLPC     H5S      HAL2     0.900000E-01   1.00800           0
     18160 MEMB     158      SLPC     C26      CTL2    -0.180000       12.0110           0
     18161 MEMB     158      SLPC     H6R      HAL2     0.900000E-01   1.00800           0
     18162 MEMB     158      SLPC     H6S      HAL2     0.900000E-01   1.00800           0
     18163 MEMB     158      SLPC     C27      CTL2    -0.180000       12.0110           0
     18164 MEMB     158      SLPC     H7R      HAL2     0.900000E-01   1.00800           0
     18165 MEMB     158      SLPC     H7S      HAL2     0.900000E-01   1.00800           0
     18166 MEMB     158      SLPC     C28      CTL2    -0.180000       12.0110           0
     18167 MEMB     158      SLPC     H8R      HAL2     0.900000E-01   1.00800           0
     18168 MEMB     158      SLPC     H8S      HAL2     0.900000E-01   1.00800           0
     18169 MEMB     158      SLPC     C29      CEL1    -0.150000       12.0110           0
     18170 MEMB     158      SLPC     H9R      HEL1     0.150000       1.00800           0
     18171 MEMB     158      SLPC     C210     CEL1    -0.150000       12.0110           0
     18172 MEMB     158      SLPC     H10R     HEL1     0.150000       1.00800           0
     18173 MEMB     158      SLPC     C211     CTL2    -0.180000       12.0110           0
     18174 MEMB     158      SLPC     H11R     HAL2     0.900000E-01   1.00800           0
     18175 MEMB     158      SLPC     H11S     HAL2     0.900000E-01   1.00800           0
     18176 MEMB     158      SLPC     C212     CEL1    -0.150000       12.0110           0
     18177 MEMB     158      SLPC     H12R     HEL1     0.150000       1.00800           0
     18178 MEMB     158      SLPC     C213     CEL1    -0.150000       12.0110           0
     18179 MEMB     158      SLPC     H13R     HEL1     0.150000       1.00800           0
     18180 MEMB     158      SLPC     C214     CTL2    -0.180000       12.0110           0
     18181 MEMB     158      SLPC     H14R     HAL2     0.900000E-01   1.00800           0
     18182 MEMB     158      SLPC     H14S     HAL2     0.900000E-01   1.00800           0
     18183 MEMB     158      SLPC     C215     CTL2    -0.180000       12.0110           0
     18184 MEMB     158      SLPC     H15R     HAL2     0.900000E-01   1.00800           0
     18185 MEMB     158      SLPC     H15S     HAL2     0.900000E-01   1.00800           0
     18186 MEMB     158      SLPC     C216     CTL2    -0.180000       12.0110           0
     18187 MEMB     158      SLPC     H16R     HAL2     0.900000E-01   1.00800           0
     18188 MEMB     158      SLPC     H16S     HAL2     0.900000E-01   1.00800           0
     18189 MEMB     158      SLPC     C217     CTL2    -0.180000       12.0110           0
     18190 MEMB     158      SLPC     H17R     HAL2     0.900000E-01   1.00800           0
     18191 MEMB     158      SLPC     H17S     HAL2     0.900000E-01   1.00800           0
     18192 MEMB     158      SLPC     C218     CTL3    -0.270000       12.0110           0
     18193 MEMB     158      SLPC     H18R     HAL3     0.900000E-01   1.00800           0
     18194 MEMB     158      SLPC     H18S     HAL3     0.900000E-01   1.00800           0
     18195 MEMB     158      SLPC     H18T     HAL3     0.900000E-01   1.00800           0
     18196 MEMB     158      SLPC     C33      CTL2    -0.180000       12.0110           0
     18197 MEMB     158      SLPC     H3X      HAL2     0.900000E-01   1.00800           0
     18198 MEMB     158      SLPC     H3Y      HAL2     0.900000E-01   1.00800           0
     18199 MEMB     158      SLPC     C34      CTL2    -0.180000       12.0110           0
     18200 MEMB     158      SLPC     H4X      HAL2     0.900000E-01   1.00800           0
     18201 MEMB     158      SLPC     H4Y      HAL2     0.900000E-01   1.00800           0
     18202 MEMB     158      SLPC     C35      CTL2    -0.180000       12.0110           0
     18203 MEMB     158      SLPC     H5X      HAL2     0.900000E-01   1.00800           0
     18204 MEMB     158      SLPC     H5Y      HAL2     0.900000E-01   1.00800           0
     18205 MEMB     158      SLPC     C36      CTL2    -0.180000       12.0110           0
     18206 MEMB     158      SLPC     H6X      HAL2     0.900000E-01   1.00800           0
     18207 MEMB     158      SLPC     H6Y      HAL2     0.900000E-01   1.00800           0
     18208 MEMB     158      SLPC     C37      CTL2    -0.180000       12.0110           0
     18209 MEMB     158      SLPC     H7X      HAL2     0.900000E-01   1.00800           0
     18210 MEMB     158      SLPC     H7Y      HAL2     0.900000E-01   1.00800           0
     18211 MEMB     158      SLPC     C38      CTL2    -0.180000       12.0110           0
     18212 MEMB     158      SLPC     H8X      HAL2     0.900000E-01   1.00800           0
     18213 MEMB     158      SLPC     H8Y      HAL2     0.900000E-01   1.00800           0
     18214 MEMB     158      SLPC     C39      CTL2    -0.180000       12.0110           0
     18215 MEMB     158      SLPC     H9X      HAL2     0.900000E-01   1.00800           0
     18216 MEMB     158      SLPC     H9Y      HAL2     0.900000E-01   1.00800           0
     18217 MEMB     158      SLPC     C310     CTL2    -0.180000       12.0110           0
     18218 MEMB     158      SLPC     H10X     HAL2     0.900000E-01   1.00800           0
     18219 MEMB     158      SLPC     H10Y     HAL2     0.900000E-01   1.00800           0
     18220 MEMB     158      SLPC     C311     CTL2    -0.180000       12.0110           0
     18221 MEMB     158      SLPC     H11X     HAL2     0.900000E-01   1.00800           0
     18222 MEMB     158      SLPC     H11Y     HAL2     0.900000E-01   1.00800           0
     18223 MEMB     158      SLPC     C312     CTL2    -0.180000       12.0110           0
     18224 MEMB     158      SLPC     H12X     HAL2     0.900000E-01   1.00800           0
     18225 MEMB     158      SLPC     H12Y     HAL2     0.900000E-01   1.00800           0
     18226 MEMB     158      SLPC     C313     CTL2    -0.180000       12.0110           0
     18227 MEMB     158      SLPC     H13X     HAL2     0.900000E-01   1.00800           0
     18228 MEMB     158      SLPC     H13Y     HAL2     0.900000E-01   1.00800           0
     18229 MEMB     158      SLPC     C314     CTL2    -0.180000       12.0110           0
     18230 MEMB     158      SLPC     H14X     HAL2     0.900000E-01   1.00800           0
     18231 MEMB     158      SLPC     H14Y     HAL2     0.900000E-01   1.00800           0
     18232 MEMB     158      SLPC     C315     CTL2    -0.180000       12.0110           0
     18233 MEMB     158      SLPC     H15X     HAL2     0.900000E-01   1.00800           0
     18234 MEMB     158      SLPC     H15Y     HAL2     0.900000E-01   1.00800           0
     18235 MEMB     158      SLPC     C316     CTL2    -0.180000       12.0110           0
     18236 MEMB     158      SLPC     H16X     HAL2     0.900000E-01   1.00800           0
     18237 MEMB     158      SLPC     H16Y     HAL2     0.900000E-01   1.00800           0
     18238 MEMB     158      SLPC     C317     CTL2    -0.180000       12.0110           0
     18239 MEMB     158      SLPC     H17X     HAL2     0.900000E-01   1.00800           0
     18240 MEMB     158      SLPC     H17Y     HAL2     0.900000E-01   1.00800           0
     18241 MEMB     158      SLPC     C318     CTL3    -0.270000       12.0110           0
     18242 MEMB     158      SLPC     H18X     HAL3     0.900000E-01   1.00800           0
     18243 MEMB     158      SLPC     H18Y     HAL3     0.900000E-01   1.00800           0
     18244 MEMB     158      SLPC     H18Z     HAL3     0.900000E-01   1.00800           0
     18245 MEMB     159      SOPE     N        NH3L    -0.300000       14.0070           0
     18246 MEMB     159      SOPE     HN1      HCL      0.330000       1.00800           0
     18247 MEMB     159      SOPE     HN2      HCL      0.330000       1.00800           0
     18248 MEMB     159      SOPE     HN3      HCL      0.330000       1.00800           0
     18249 MEMB     159      SOPE     C12      CTL2     0.130000       12.0110           0
     18250 MEMB     159      SOPE     H12A     HAL2     0.900000E-01   1.00800           0
     18251 MEMB     159      SOPE     H12B     HAL2     0.900000E-01   1.00800           0
     18252 MEMB     159      SOPE     C11      CTL2    -0.800000E-01   12.0110           0
     18253 MEMB     159      SOPE     H11A     HAL2     0.900000E-01   1.00800           0
     18254 MEMB     159      SOPE     H11B     HAL2     0.900000E-01   1.00800           0
     18255 MEMB     159      SOPE     P        PL        1.50000       30.9740           0
     18256 MEMB     159      SOPE     O13      O2L     -0.780000       15.9994           0
     18257 MEMB     159      SOPE     O14      O2L     -0.780000       15.9994           0
     18258 MEMB     159      SOPE     O12      OSLP    -0.570000       15.9994           0
     18259 MEMB     159      SOPE     O11      OSLP    -0.570000       15.9994           0
     18260 MEMB     159      SOPE     C1       CTL2    -0.800000E-01   12.0110           0
     18261 MEMB     159      SOPE     HA       HAL2     0.900000E-01   1.00800           0
     18262 MEMB     159      SOPE     HB       HAL2     0.900000E-01   1.00800           0
     18263 MEMB     159      SOPE     C2       CTL1     0.170000       12.0110           0
     18264 MEMB     159      SOPE     HS       HAL1     0.900000E-01   1.00800           0
     18265 MEMB     159      SOPE     O21      OSL     -0.490000       15.9994           0
     18266 MEMB     159      SOPE     C21      CL       0.900000       12.0110           0
     18267 MEMB     159      SOPE     O22      OBL     -0.630000       15.9994           0
     18268 MEMB     159      SOPE     C22      CTL2    -0.220000       12.0110           0
     18269 MEMB     159      SOPE     H2R      HAL2     0.900000E-01   1.00800           0
     18270 MEMB     159      SOPE     H2S      HAL2     0.900000E-01   1.00800           0
     18271 MEMB     159      SOPE     C3       CTL2     0.800000E-01   12.0110           0
     18272 MEMB     159      SOPE     HX       HAL2     0.900000E-01   1.00800           0
     18273 MEMB     159      SOPE     HY       HAL2     0.900000E-01   1.00800           0
     18274 MEMB     159      SOPE     O31      OSL     -0.490000       15.9994           0
     18275 MEMB     159      SOPE     C31      CL       0.900000       12.0110           0
     18276 MEMB     159      SOPE     O32      OBL     -0.630000       15.9994           0
     18277 MEMB     159      SOPE     C32      CTL2    -0.220000       12.0110           0
     18278 MEMB     159      SOPE     H2X      HAL2     0.900000E-01   1.00800           0
     18279 MEMB     159      SOPE     H2Y      HAL2     0.900000E-01   1.00800           0
     18280 MEMB     159      SOPE     C23      CTL2    -0.180000       12.0110           0
     18281 MEMB     159      SOPE     H3R      HAL2     0.900000E-01   1.00800           0
     18282 MEMB     159      SOPE     H3S      HAL2     0.900000E-01   1.00800           0
     18283 MEMB     159      SOPE     C24      CTL2    -0.180000       12.0110           0
     18284 MEMB     159      SOPE     H4R      HAL2     0.900000E-01   1.00800           0
     18285 MEMB     159      SOPE     H4S      HAL2     0.900000E-01   1.00800           0
     18286 MEMB     159      SOPE     C25      CTL2    -0.180000       12.0110           0
     18287 MEMB     159      SOPE     H5R      HAL2     0.900000E-01   1.00800           0
     18288 MEMB     159      SOPE     H5S      HAL2     0.900000E-01   1.00800           0
     18289 MEMB     159      SOPE     C26      CTL2    -0.180000       12.0110           0
     18290 MEMB     159      SOPE     H6R      HAL2     0.900000E-01   1.00800           0
     18291 MEMB     159      SOPE     H6S      HAL2     0.900000E-01   1.00800           0
     18292 MEMB     159      SOPE     C27      CTL2    -0.180000       12.0110           0
     18293 MEMB     159      SOPE     H7R      HAL2     0.900000E-01   1.00800           0
     18294 MEMB     159      SOPE     H7S      HAL2     0.900000E-01   1.00800           0
     18295 MEMB     159      SOPE     C28      CTL2    -0.180000       12.0110           0
     18296 MEMB     159      SOPE     H8R      HAL2     0.900000E-01   1.00800           0
     18297 MEMB     159      SOPE     H8S      HAL2     0.900000E-01   1.00800           0
     18298 MEMB     159      SOPE     C29      CEL1    -0.150000       12.0110           0
     18299 MEMB     159      SOPE     H91      HEL1     0.150000       1.00800           0
     18300 MEMB     159      SOPE     C210     CEL1    -0.150000       12.0110           0
     18301 MEMB     159      SOPE     H101     HEL1     0.150000       1.00800           0
     18302 MEMB     159      SOPE     C211     CTL2    -0.180000       12.0110           0
     18303 MEMB     159      SOPE     H11R     HAL2     0.900000E-01   1.00800           0
     18304 MEMB     159      SOPE     H11S     HAL2     0.900000E-01   1.00800           0
     18305 MEMB     159      SOPE     C212     CTL2    -0.180000       12.0110           0
     18306 MEMB     159      SOPE     H12R     HAL2     0.900000E-01   1.00800           0
     18307 MEMB     159      SOPE     H12S     HAL2     0.900000E-01   1.00800           0
     18308 MEMB     159      SOPE     C213     CTL2    -0.180000       12.0110           0
     18309 MEMB     159      SOPE     H13R     HAL2     0.900000E-01   1.00800           0
     18310 MEMB     159      SOPE     H13S     HAL2     0.900000E-01   1.00800           0
     18311 MEMB     159      SOPE     C214     CTL2    -0.180000       12.0110           0
     18312 MEMB     159      SOPE     H14R     HAL2     0.900000E-01   1.00800           0
     18313 MEMB     159      SOPE     H14S     HAL2     0.900000E-01   1.00800           0
     18314 MEMB     159      SOPE     C215     CTL2    -0.180000       12.0110           0
     18315 MEMB     159      SOPE     H15R     HAL2     0.900000E-01   1.00800           0
     18316 MEMB     159      SOPE     H15S     HAL2     0.900000E-01   1.00800           0
     18317 MEMB     159      SOPE     C216     CTL2    -0.180000       12.0110           0
     18318 MEMB     159      SOPE     H16R     HAL2     0.900000E-01   1.00800           0
     18319 MEMB     159      SOPE     H16S     HAL2     0.900000E-01   1.00800           0
     18320 MEMB     159      SOPE     C217     CTL2    -0.180000       12.0110           0
     18321 MEMB     159      SOPE     H17R     HAL2     0.900000E-01   1.00800           0
     18322 MEMB     159      SOPE     H17S     HAL2     0.900000E-01   1.00800           0
     18323 MEMB     159      SOPE     C218     CTL3    -0.270000       12.0110           0
     18324 MEMB     159      SOPE     H18R     HAL3     0.900000E-01   1.00800           0
     18325 MEMB     159      SOPE     H18S     HAL3     0.900000E-01   1.00800           0
     18326 MEMB     159      SOPE     H18T     HAL3     0.900000E-01   1.00800           0
     18327 MEMB     159      SOPE     C33      CTL2    -0.180000       12.0110           0
     18328 MEMB     159      SOPE     H3X      HAL2     0.900000E-01   1.00800           0
     18329 MEMB     159      SOPE     H3Y      HAL2     0.900000E-01   1.00800           0
     18330 MEMB     159      SOPE     C34      CTL2    -0.180000       12.0110           0
     18331 MEMB     159      SOPE     H4X      HAL2     0.900000E-01   1.00800           0
     18332 MEMB     159      SOPE     H4Y      HAL2     0.900000E-01   1.00800           0
     18333 MEMB     159      SOPE     C35      CTL2    -0.180000       12.0110           0
     18334 MEMB     159      SOPE     H5X      HAL2     0.900000E-01   1.00800           0
     18335 MEMB     159      SOPE     H5Y      HAL2     0.900000E-01   1.00800           0
     18336 MEMB     159      SOPE     C36      CTL2    -0.180000       12.0110           0
     18337 MEMB     159      SOPE     H6X      HAL2     0.900000E-01   1.00800           0
     18338 MEMB     159      SOPE     H6Y      HAL2     0.900000E-01   1.00800           0
     18339 MEMB     159      SOPE     C37      CTL2    -0.180000       12.0110           0
     18340 MEMB     159      SOPE     H7X      HAL2     0.900000E-01   1.00800           0
     18341 MEMB     159      SOPE     H7Y      HAL2     0.900000E-01   1.00800           0
     18342 MEMB     159      SOPE     C38      CTL2    -0.180000       12.0110           0
     18343 MEMB     159      SOPE     H8X      HAL2     0.900000E-01   1.00800           0
     18344 MEMB     159      SOPE     H8Y      HAL2     0.900000E-01   1.00800           0
     18345 MEMB     159      SOPE     C39      CTL2    -0.180000       12.0110           0
     18346 MEMB     159      SOPE     H9X      HAL2     0.900000E-01   1.00800           0
     18347 MEMB     159      SOPE     H9Y      HAL2     0.900000E-01   1.00800           0
     18348 MEMB     159      SOPE     C310     CTL2    -0.180000       12.0110           0
     18349 MEMB     159      SOPE     H10X     HAL2     0.900000E-01   1.00800           0
     18350 MEMB     159      SOPE     H10Y     HAL2     0.900000E-01   1.00800           0
     18351 MEMB     159      SOPE     C311     CTL2    -0.180000       12.0110           0
     18352 MEMB     159      SOPE     H11X     HAL2     0.900000E-01   1.00800           0
     18353 MEMB     159      SOPE     H11Y     HAL2     0.900000E-01   1.00800           0
     18354 MEMB     159      SOPE     C312     CTL2    -0.180000       12.0110           0
     18355 MEMB     159      SOPE     H12X     HAL2     0.900000E-01   1.00800           0
     18356 MEMB     159      SOPE     H12Y     HAL2     0.900000E-01   1.00800           0
     18357 MEMB     159      SOPE     C313     CTL2    -0.180000       12.0110           0
     18358 MEMB     159      SOPE     H13X     HAL2     0.900000E-01   1.00800           0
     18359 MEMB     159      SOPE     H13Y     HAL2     0.900000E-01   1.00800           0
     18360 MEMB     159      SOPE     C314     CTL2    -0.180000       12.0110           0
     18361 MEMB     159      SOPE     H14X     HAL2     0.900000E-01   1.00800           0
     18362 MEMB     159      SOPE     H14Y     HAL2     0.900000E-01   1.00800           0
     18363 MEMB     159      SOPE     C315     CTL2    -0.180000       12.0110           0
     18364 MEMB     159      SOPE     H15X     HAL2     0.900000E-01   1.00800           0
     18365 MEMB     159      SOPE     H15Y     HAL2     0.900000E-01   1.00800           0
     18366 MEMB     159      SOPE     C316     CTL2    -0.180000       12.0110           0
     18367 MEMB     159      SOPE     H16X     HAL2     0.900000E-01   1.00800           0
     18368 MEMB     159      SOPE     H16Y     HAL2     0.900000E-01   1.00800           0
     18369 MEMB     159      SOPE     C317     CTL2    -0.180000       12.0110           0
     18370 MEMB     159      SOPE     H17X     HAL2     0.900000E-01   1.00800           0
     18371 MEMB     159      SOPE     H17Y     HAL2     0.900000E-01   1.00800           0
     18372 MEMB     159      SOPE     C318     CTL3    -0.270000       12.0110           0
     18373 MEMB     159      SOPE     H18X     HAL3     0.900000E-01   1.00800           0
     18374 MEMB     159      SOPE     H18Y     HAL3     0.900000E-01   1.00800           0
     18375 MEMB     159      SOPE     H18Z     HAL3     0.900000E-01   1.00800           0
     18376 MEMB     160      SAPI     C12      CC3161   0.140000       12.0110           0
     18377 MEMB     160      SAPI     H2       HCA1     0.900000E-01   1.00800           0
     18378 MEMB     160      SAPI     O2       OC311   -0.650000       15.9994           0
     18379 MEMB     160      SAPI     HO2      HCP1     0.420000       1.00800           0
     18380 MEMB     160      SAPI     C13      CC3161   0.140000       12.0110           0
     18381 MEMB     160      SAPI     H3       HCA1     0.900000E-01   1.00800           0
     18382 MEMB     160      SAPI     O3       OC311   -0.650000       15.9994           0
     18383 MEMB     160      SAPI     HO3      HCP1     0.420000       1.00800           0
     18384 MEMB     160      SAPI     C14      CC3161   0.140000       12.0110           0
     18385 MEMB     160      SAPI     H4       HCA1     0.900000E-01   1.00800           0
     18386 MEMB     160      SAPI     O4       OC311   -0.650000       15.9994           0
     18387 MEMB     160      SAPI     HO4      HCP1     0.420000       1.00800           0
     18388 MEMB     160      SAPI     C15      CC3161   0.140000       12.0110           0
     18389 MEMB     160      SAPI     H5       HCA1     0.900000E-01   1.00800           0
     18390 MEMB     160      SAPI     O5       OC311   -0.650000       15.9994           0
     18391 MEMB     160      SAPI     HO5      HCP1     0.420000       1.00800           0
     18392 MEMB     160      SAPI     C16      CC3161   0.140000       12.0110           0
     18393 MEMB     160      SAPI     H6       HCA1     0.900000E-01   1.00800           0
     18394 MEMB     160      SAPI     O6       OC311   -0.650000       15.9994           0
     18395 MEMB     160      SAPI     HO6      HCP1     0.420000       1.00800           0
     18396 MEMB     160      SAPI     C11      CC3161  -0.800000E-01   12.0110           0
     18397 MEMB     160      SAPI     H1       HCA1     0.900000E-01   1.00800           0
     18398 MEMB     160      SAPI     P        PL        1.59000       30.9740           0
     18399 MEMB     160      SAPI     O13      O2L     -0.780000       15.9994           0
     18400 MEMB     160      SAPI     O14      O2L     -0.780000       15.9994           0
     18401 MEMB     160      SAPI     O12      OC30P   -0.570000       15.9994           0
     18402 MEMB     160      SAPI     O11      OSLP    -0.570000       15.9994           0
     18403 MEMB     160      SAPI     C1       CTL2    -0.800000E-01   12.0110           0
     18404 MEMB     160      SAPI     HA       HAL2     0.900000E-01   1.00800           0
     18405 MEMB     160      SAPI     HB       HAL2     0.900000E-01   1.00800           0
     18406 MEMB     160      SAPI     C2       CTL1     0.170000       12.0110           0
     18407 MEMB     160      SAPI     HS       HAL1     0.900000E-01   1.00800           0
     18408 MEMB     160      SAPI     O21      OSL     -0.490000       15.9994           0
     18409 MEMB     160      SAPI     C21      CL       0.900000       12.0110           0
     18410 MEMB     160      SAPI     O22      OBL     -0.630000       15.9994           0
     18411 MEMB     160      SAPI     C22      CTL2    -0.220000       12.0110           0
     18412 MEMB     160      SAPI     H2R      HAL2     0.900000E-01   1.00800           0
     18413 MEMB     160      SAPI     H2S      HAL2     0.900000E-01   1.00800           0
     18414 MEMB     160      SAPI     C3       CTL2     0.800000E-01   12.0110           0
     18415 MEMB     160      SAPI     HX       HAL2     0.900000E-01   1.00800           0
     18416 MEMB     160      SAPI     HY       HAL2     0.900000E-01   1.00800           0
     18417 MEMB     160      SAPI     O31      OSL     -0.490000       15.9994           0
     18418 MEMB     160      SAPI     C31      CL       0.900000       12.0110           0
     18419 MEMB     160      SAPI     O32      OBL     -0.630000       15.9994           0
     18420 MEMB     160      SAPI     C32      CTL2    -0.220000       12.0110           0
     18421 MEMB     160      SAPI     H2X      HAL2     0.900000E-01   1.00800           0
     18422 MEMB     160      SAPI     H2Y      HAL2     0.900000E-01   1.00800           0
     18423 MEMB     160      SAPI     C23      CTL2    -0.180000       12.0110           0
     18424 MEMB     160      SAPI     H3R      HAL2     0.900000E-01   1.00800           0
     18425 MEMB     160      SAPI     H3S      HAL2     0.900000E-01   1.00800           0
     18426 MEMB     160      SAPI     C24      CTL2    -0.180000       12.0110           0
     18427 MEMB     160      SAPI     H4R      HAL2     0.900000E-01   1.00800           0
     18428 MEMB     160      SAPI     H4S      HAL2     0.900000E-01   1.00800           0
     18429 MEMB     160      SAPI     C25      CEL1    -0.150000       12.0110           0
     18430 MEMB     160      SAPI     H5R      HEL1     0.150000       1.00800           0
     18431 MEMB     160      SAPI     C26      CEL1    -0.150000       12.0110           0
     18432 MEMB     160      SAPI     H6R      HEL1     0.150000       1.00800           0
     18433 MEMB     160      SAPI     C27      CTL2    -0.180000       12.0110           0
     18434 MEMB     160      SAPI     H7R      HAL2     0.900000E-01   1.00800           0
     18435 MEMB     160      SAPI     H7S      HAL2     0.900000E-01   1.00800           0
     18436 MEMB     160      SAPI     C28      CEL1    -0.150000       12.0110           0
     18437 MEMB     160      SAPI     H8R      HEL1     0.150000       1.00800           0
     18438 MEMB     160      SAPI     C29      CEL1    -0.150000       12.0110           0
     18439 MEMB     160      SAPI     H9R      HEL1     0.150000       1.00800           0
     18440 MEMB     160      SAPI     C210     CTL2    -0.180000       12.0110           0
     18441 MEMB     160      SAPI     H10R     HAL2     0.900000E-01   1.00800           0
     18442 MEMB     160      SAPI     H10S     HAL2     0.900000E-01   1.00800           0
     18443 MEMB     160      SAPI     C211     CEL1    -0.150000       12.0110           0
     18444 MEMB     160      SAPI     H11R     HEL1     0.150000       1.00800           0
     18445 MEMB     160      SAPI     C212     CEL1    -0.150000       12.0110           0
     18446 MEMB     160      SAPI     H12R     HEL1     0.150000       1.00800           0
     18447 MEMB     160      SAPI     C213     CTL2    -0.180000       12.0110           0
     18448 MEMB     160      SAPI     H13R     HAL2     0.900000E-01   1.00800           0
     18449 MEMB     160      SAPI     H13S     HAL2     0.900000E-01   1.00800           0
     18450 MEMB     160      SAPI     C214     CEL1    -0.150000       12.0110           0
     18451 MEMB     160      SAPI     H14R     HEL1     0.150000       1.00800           0
     18452 MEMB     160      SAPI     C215     CEL1    -0.150000       12.0110           0
     18453 MEMB     160      SAPI     H15R     HEL1     0.150000       1.00800           0
     18454 MEMB     160      SAPI     C216     CTL2    -0.180000       12.0110           0
     18455 MEMB     160      SAPI     H16R     HAL2     0.900000E-01   1.00800           0
     18456 MEMB     160      SAPI     H16S     HAL2     0.900000E-01   1.00800           0
     18457 MEMB     160      SAPI     C217     CTL2    -0.180000       12.0110           0
     18458 MEMB     160      SAPI     H17R     HAL2     0.900000E-01   1.00800           0
     18459 MEMB     160      SAPI     H17S     HAL2     0.900000E-01   1.00800           0
     18460 MEMB     160      SAPI     C218     CTL2    -0.180000       12.0110           0
     18461 MEMB     160      SAPI     H18R     HAL2     0.900000E-01   1.00800           0
     18462 MEMB     160      SAPI     H18S     HAL2     0.900000E-01   1.00800           0
     18463 MEMB     160      SAPI     C219     CTL2    -0.180000       12.0110           0
     18464 MEMB     160      SAPI     H19R     HAL2     0.900000E-01   1.00800           0
     18465 MEMB     160      SAPI     H19S     HAL2     0.900000E-01   1.00800           0
     18466 MEMB     160      SAPI     C220     CTL3    -0.270000       12.0110           0
     18467 MEMB     160      SAPI     H20R     HAL3     0.900000E-01   1.00800           0
     18468 MEMB     160      SAPI     H20S     HAL3     0.900000E-01   1.00800           0
     18469 MEMB     160      SAPI     H20T     HAL3     0.900000E-01   1.00800           0
     18470 MEMB     160      SAPI     C33      CTL2    -0.180000       12.0110           0
     18471 MEMB     160      SAPI     H3X      HAL2     0.900000E-01   1.00800           0
     18472 MEMB     160      SAPI     H3Y      HAL2     0.900000E-01   1.00800           0
     18473 MEMB     160      SAPI     C34      CTL2    -0.180000       12.0110           0
     18474 MEMB     160      SAPI     H4X      HAL2     0.900000E-01   1.00800           0
     18475 MEMB     160      SAPI     H4Y      HAL2     0.900000E-01   1.00800           0
     18476 MEMB     160      SAPI     C35      CTL2    -0.180000       12.0110           0
     18477 MEMB     160      SAPI     H5X      HAL2     0.900000E-01   1.00800           0
     18478 MEMB     160      SAPI     H5Y      HAL2     0.900000E-01   1.00800           0
     18479 MEMB     160      SAPI     C36      CTL2    -0.180000       12.0110           0
     18480 MEMB     160      SAPI     H6X      HAL2     0.900000E-01   1.00800           0
     18481 MEMB     160      SAPI     H6Y      HAL2     0.900000E-01   1.00800           0
     18482 MEMB     160      SAPI     C37      CTL2    -0.180000       12.0110           0
     18483 MEMB     160      SAPI     H7X      HAL2     0.900000E-01   1.00800           0
     18484 MEMB     160      SAPI     H7Y      HAL2     0.900000E-01   1.00800           0
     18485 MEMB     160      SAPI     C38      CTL2    -0.180000       12.0110           0
     18486 MEMB     160      SAPI     H8X      HAL2     0.900000E-01   1.00800           0
     18487 MEMB     160      SAPI     H8Y      HAL2     0.900000E-01   1.00800           0
     18488 MEMB     160      SAPI     C39      CTL2    -0.180000       12.0110           0
     18489 MEMB     160      SAPI     H9X      HAL2     0.900000E-01   1.00800           0
     18490 MEMB     160      SAPI     H9Y      HAL2     0.900000E-01   1.00800           0
     18491 MEMB     160      SAPI     C310     CTL2    -0.180000       12.0110           0
     18492 MEMB     160      SAPI     H10X     HAL2     0.900000E-01   1.00800           0
     18493 MEMB     160      SAPI     H10Y     HAL2     0.900000E-01   1.00800           0
     18494 MEMB     160      SAPI     C311     CTL2    -0.180000       12.0110           0
     18495 MEMB     160      SAPI     H11X     HAL2     0.900000E-01   1.00800           0
     18496 MEMB     160      SAPI     H11Y     HAL2     0.900000E-01   1.00800           0
     18497 MEMB     160      SAPI     C312     CTL2    -0.180000       12.0110           0
     18498 MEMB     160      SAPI     H12X     HAL2     0.900000E-01   1.00800           0
     18499 MEMB     160      SAPI     H12Y     HAL2     0.900000E-01   1.00800           0
     18500 MEMB     160      SAPI     C313     CTL2    -0.180000       12.0110           0
     18501 MEMB     160      SAPI     H13X     HAL2     0.900000E-01   1.00800           0
     18502 MEMB     160      SAPI     H13Y     HAL2     0.900000E-01   1.00800           0
     18503 MEMB     160      SAPI     C314     CTL2    -0.180000       12.0110           0
     18504 MEMB     160      SAPI     H14X     HAL2     0.900000E-01   1.00800           0
     18505 MEMB     160      SAPI     H14Y     HAL2     0.900000E-01   1.00800           0
     18506 MEMB     160      SAPI     C315     CTL2    -0.180000       12.0110           0
     18507 MEMB     160      SAPI     H15X     HAL2     0.900000E-01   1.00800           0
     18508 MEMB     160      SAPI     H15Y     HAL2     0.900000E-01   1.00800           0
     18509 MEMB     160      SAPI     C316     CTL2    -0.180000       12.0110           0
     18510 MEMB     160      SAPI     H16X     HAL2     0.900000E-01   1.00800           0
     18511 MEMB     160      SAPI     H16Y     HAL2     0.900000E-01   1.00800           0
     18512 MEMB     160      SAPI     C317     CTL2    -0.180000       12.0110           0
     18513 MEMB     160      SAPI     H17X     HAL2     0.900000E-01   1.00800           0
     18514 MEMB     160      SAPI     H17Y     HAL2     0.900000E-01   1.00800           0
     18515 MEMB     160      SAPI     C318     CTL3    -0.270000       12.0110           0
     18516 MEMB     160      SAPI     H18X     HAL3     0.900000E-01   1.00800           0
     18517 MEMB     160      SAPI     H18Y     HAL3     0.900000E-01   1.00800           0
     18518 MEMB     160      SAPI     H18Z     HAL3     0.900000E-01   1.00800           0
     18519 MEMB     161      SAPI     C12      CC3161   0.140000       12.0110           0
     18520 MEMB     161      SAPI     H2       HCA1     0.900000E-01   1.00800           0
     18521 MEMB     161      SAPI     O2       OC311   -0.650000       15.9994           0
     18522 MEMB     161      SAPI     HO2      HCP1     0.420000       1.00800           0
     18523 MEMB     161      SAPI     C13      CC3161   0.140000       12.0110           0
     18524 MEMB     161      SAPI     H3       HCA1     0.900000E-01   1.00800           0
     18525 MEMB     161      SAPI     O3       OC311   -0.650000       15.9994           0
     18526 MEMB     161      SAPI     HO3      HCP1     0.420000       1.00800           0
     18527 MEMB     161      SAPI     C14      CC3161   0.140000       12.0110           0
     18528 MEMB     161      SAPI     H4       HCA1     0.900000E-01   1.00800           0
     18529 MEMB     161      SAPI     O4       OC311   -0.650000       15.9994           0
     18530 MEMB     161      SAPI     HO4      HCP1     0.420000       1.00800           0
     18531 MEMB     161      SAPI     C15      CC3161   0.140000       12.0110           0
     18532 MEMB     161      SAPI     H5       HCA1     0.900000E-01   1.00800           0
     18533 MEMB     161      SAPI     O5       OC311   -0.650000       15.9994           0
     18534 MEMB     161      SAPI     HO5      HCP1     0.420000       1.00800           0
     18535 MEMB     161      SAPI     C16      CC3161   0.140000       12.0110           0
     18536 MEMB     161      SAPI     H6       HCA1     0.900000E-01   1.00800           0
     18537 MEMB     161      SAPI     O6       OC311   -0.650000       15.9994           0
     18538 MEMB     161      SAPI     HO6      HCP1     0.420000       1.00800           0
     18539 MEMB     161      SAPI     C11      CC3161  -0.800000E-01   12.0110           0
     18540 MEMB     161      SAPI     H1       HCA1     0.900000E-01   1.00800           0
     18541 MEMB     161      SAPI     P        PL        1.59000       30.9740           0
     18542 MEMB     161      SAPI     O13      O2L     -0.780000       15.9994           0
     18543 MEMB     161      SAPI     O14      O2L     -0.780000       15.9994           0
     18544 MEMB     161      SAPI     O12      OC30P   -0.570000       15.9994           0
     18545 MEMB     161      SAPI     O11      OSLP    -0.570000       15.9994           0
     18546 MEMB     161      SAPI     C1       CTL2    -0.800000E-01   12.0110           0
     18547 MEMB     161      SAPI     HA       HAL2     0.900000E-01   1.00800           0
     18548 MEMB     161      SAPI     HB       HAL2     0.900000E-01   1.00800           0
     18549 MEMB     161      SAPI     C2       CTL1     0.170000       12.0110           0
     18550 MEMB     161      SAPI     HS       HAL1     0.900000E-01   1.00800           0
     18551 MEMB     161      SAPI     O21      OSL     -0.490000       15.9994           0
     18552 MEMB     161      SAPI     C21      CL       0.900000       12.0110           0
     18553 MEMB     161      SAPI     O22      OBL     -0.630000       15.9994           0
     18554 MEMB     161      SAPI     C22      CTL2    -0.220000       12.0110           0
     18555 MEMB     161      SAPI     H2R      HAL2     0.900000E-01   1.00800           0
     18556 MEMB     161      SAPI     H2S      HAL2     0.900000E-01   1.00800           0
     18557 MEMB     161      SAPI     C3       CTL2     0.800000E-01   12.0110           0
     18558 MEMB     161      SAPI     HX       HAL2     0.900000E-01   1.00800           0
     18559 MEMB     161      SAPI     HY       HAL2     0.900000E-01   1.00800           0
     18560 MEMB     161      SAPI     O31      OSL     -0.490000       15.9994           0
     18561 MEMB     161      SAPI     C31      CL       0.900000       12.0110           0
     18562 MEMB     161      SAPI     O32      OBL     -0.630000       15.9994           0
     18563 MEMB     161      SAPI     C32      CTL2    -0.220000       12.0110           0
     18564 MEMB     161      SAPI     H2X      HAL2     0.900000E-01   1.00800           0
     18565 MEMB     161      SAPI     H2Y      HAL2     0.900000E-01   1.00800           0
     18566 MEMB     161      SAPI     C23      CTL2    -0.180000       12.0110           0
     18567 MEMB     161      SAPI     H3R      HAL2     0.900000E-01   1.00800           0
     18568 MEMB     161      SAPI     H3S      HAL2     0.900000E-01   1.00800           0
     18569 MEMB     161      SAPI     C24      CTL2    -0.180000       12.0110           0
     18570 MEMB     161      SAPI     H4R      HAL2     0.900000E-01   1.00800           0
     18571 MEMB     161      SAPI     H4S      HAL2     0.900000E-01   1.00800           0
     18572 MEMB     161      SAPI     C25      CEL1    -0.150000       12.0110           0
     18573 MEMB     161      SAPI     H5R      HEL1     0.150000       1.00800           0
     18574 MEMB     161      SAPI     C26      CEL1    -0.150000       12.0110           0
     18575 MEMB     161      SAPI     H6R      HEL1     0.150000       1.00800           0
     18576 MEMB     161      SAPI     C27      CTL2    -0.180000       12.0110           0
     18577 MEMB     161      SAPI     H7R      HAL2     0.900000E-01   1.00800           0
     18578 MEMB     161      SAPI     H7S      HAL2     0.900000E-01   1.00800           0
     18579 MEMB     161      SAPI     C28      CEL1    -0.150000       12.0110           0
     18580 MEMB     161      SAPI     H8R      HEL1     0.150000       1.00800           0
     18581 MEMB     161      SAPI     C29      CEL1    -0.150000       12.0110           0
     18582 MEMB     161      SAPI     H9R      HEL1     0.150000       1.00800           0
     18583 MEMB     161      SAPI     C210     CTL2    -0.180000       12.0110           0
     18584 MEMB     161      SAPI     H10R     HAL2     0.900000E-01   1.00800           0
     18585 MEMB     161      SAPI     H10S     HAL2     0.900000E-01   1.00800           0
     18586 MEMB     161      SAPI     C211     CEL1    -0.150000       12.0110           0
     18587 MEMB     161      SAPI     H11R     HEL1     0.150000       1.00800           0
     18588 MEMB     161      SAPI     C212     CEL1    -0.150000       12.0110           0
     18589 MEMB     161      SAPI     H12R     HEL1     0.150000       1.00800           0
     18590 MEMB     161      SAPI     C213     CTL2    -0.180000       12.0110           0
     18591 MEMB     161      SAPI     H13R     HAL2     0.900000E-01   1.00800           0
     18592 MEMB     161      SAPI     H13S     HAL2     0.900000E-01   1.00800           0
     18593 MEMB     161      SAPI     C214     CEL1    -0.150000       12.0110           0
     18594 MEMB     161      SAPI     H14R     HEL1     0.150000       1.00800           0
     18595 MEMB     161      SAPI     C215     CEL1    -0.150000       12.0110           0
     18596 MEMB     161      SAPI     H15R     HEL1     0.150000       1.00800           0
     18597 MEMB     161      SAPI     C216     CTL2    -0.180000       12.0110           0
     18598 MEMB     161      SAPI     H16R     HAL2     0.900000E-01   1.00800           0
     18599 MEMB     161      SAPI     H16S     HAL2     0.900000E-01   1.00800           0
     18600 MEMB     161      SAPI     C217     CTL2    -0.180000       12.0110           0
     18601 MEMB     161      SAPI     H17R     HAL2     0.900000E-01   1.00800           0
     18602 MEMB     161      SAPI     H17S     HAL2     0.900000E-01   1.00800           0
     18603 MEMB     161      SAPI     C218     CTL2    -0.180000       12.0110           0
     18604 MEMB     161      SAPI     H18R     HAL2     0.900000E-01   1.00800           0
     18605 MEMB     161      SAPI     H18S     HAL2     0.900000E-01   1.00800           0
     18606 MEMB     161      SAPI     C219     CTL2    -0.180000       12.0110           0
     18607 MEMB     161      SAPI     H19R     HAL2     0.900000E-01   1.00800           0
     18608 MEMB     161      SAPI     H19S     HAL2     0.900000E-01   1.00800           0
     18609 MEMB     161      SAPI     C220     CTL3    -0.270000       12.0110           0
     18610 MEMB     161      SAPI     H20R     HAL3     0.900000E-01   1.00800           0
     18611 MEMB     161      SAPI     H20S     HAL3     0.900000E-01   1.00800           0
     18612 MEMB     161      SAPI     H20T     HAL3     0.900000E-01   1.00800           0
     18613 MEMB     161      SAPI     C33      CTL2    -0.180000       12.0110           0
     18614 MEMB     161      SAPI     H3X      HAL2     0.900000E-01   1.00800           0
     18615 MEMB     161      SAPI     H3Y      HAL2     0.900000E-01   1.00800           0
     18616 MEMB     161      SAPI     C34      CTL2    -0.180000       12.0110           0
     18617 MEMB     161      SAPI     H4X      HAL2     0.900000E-01   1.00800           0
     18618 MEMB     161      SAPI     H4Y      HAL2     0.900000E-01   1.00800           0
     18619 MEMB     161      SAPI     C35      CTL2    -0.180000       12.0110           0
     18620 MEMB     161      SAPI     H5X      HAL2     0.900000E-01   1.00800           0
     18621 MEMB     161      SAPI     H5Y      HAL2     0.900000E-01   1.00800           0
     18622 MEMB     161      SAPI     C36      CTL2    -0.180000       12.0110           0
     18623 MEMB     161      SAPI     H6X      HAL2     0.900000E-01   1.00800           0
     18624 MEMB     161      SAPI     H6Y      HAL2     0.900000E-01   1.00800           0
     18625 MEMB     161      SAPI     C37      CTL2    -0.180000       12.0110           0
     18626 MEMB     161      SAPI     H7X      HAL2     0.900000E-01   1.00800           0
     18627 MEMB     161      SAPI     H7Y      HAL2     0.900000E-01   1.00800           0
     18628 MEMB     161      SAPI     C38      CTL2    -0.180000       12.0110           0
     18629 MEMB     161      SAPI     H8X      HAL2     0.900000E-01   1.00800           0
     18630 MEMB     161      SAPI     H8Y      HAL2     0.900000E-01   1.00800           0
     18631 MEMB     161      SAPI     C39      CTL2    -0.180000       12.0110           0
     18632 MEMB     161      SAPI     H9X      HAL2     0.900000E-01   1.00800           0
     18633 MEMB     161      SAPI     H9Y      HAL2     0.900000E-01   1.00800           0
     18634 MEMB     161      SAPI     C310     CTL2    -0.180000       12.0110           0
     18635 MEMB     161      SAPI     H10X     HAL2     0.900000E-01   1.00800           0
     18636 MEMB     161      SAPI     H10Y     HAL2     0.900000E-01   1.00800           0
     18637 MEMB     161      SAPI     C311     CTL2    -0.180000       12.0110           0
     18638 MEMB     161      SAPI     H11X     HAL2     0.900000E-01   1.00800           0
     18639 MEMB     161      SAPI     H11Y     HAL2     0.900000E-01   1.00800           0
     18640 MEMB     161      SAPI     C312     CTL2    -0.180000       12.0110           0
     18641 MEMB     161      SAPI     H12X     HAL2     0.900000E-01   1.00800           0
     18642 MEMB     161      SAPI     H12Y     HAL2     0.900000E-01   1.00800           0
     18643 MEMB     161      SAPI     C313     CTL2    -0.180000       12.0110           0
     18644 MEMB     161      SAPI     H13X     HAL2     0.900000E-01   1.00800           0
     18645 MEMB     161      SAPI     H13Y     HAL2     0.900000E-01   1.00800           0
     18646 MEMB     161      SAPI     C314     CTL2    -0.180000       12.0110           0
     18647 MEMB     161      SAPI     H14X     HAL2     0.900000E-01   1.00800           0
     18648 MEMB     161      SAPI     H14Y     HAL2     0.900000E-01   1.00800           0
     18649 MEMB     161      SAPI     C315     CTL2    -0.180000       12.0110           0
     18650 MEMB     161      SAPI     H15X     HAL2     0.900000E-01   1.00800           0
     18651 MEMB     161      SAPI     H15Y     HAL2     0.900000E-01   1.00800           0
     18652 MEMB     161      SAPI     C316     CTL2    -0.180000       12.0110           0
     18653 MEMB     161      SAPI     H16X     HAL2     0.900000E-01   1.00800           0
     18654 MEMB     161      SAPI     H16Y     HAL2     0.900000E-01   1.00800           0
     18655 MEMB     161      SAPI     C317     CTL2    -0.180000       12.0110           0
     18656 MEMB     161      SAPI     H17X     HAL2     0.900000E-01   1.00800           0
     18657 MEMB     161      SAPI     H17Y     HAL2     0.900000E-01   1.00800           0
     18658 MEMB     161      SAPI     C318     CTL3    -0.270000       12.0110           0
     18659 MEMB     161      SAPI     H18X     HAL3     0.900000E-01   1.00800           0
     18660 MEMB     161      SAPI     H18Y     HAL3     0.900000E-01   1.00800           0
     18661 MEMB     161      SAPI     H18Z     HAL3     0.900000E-01   1.00800           0
     18662 MEMB     162      SOPE     N        NH3L    -0.300000       14.0070           0
     18663 MEMB     162      SOPE     HN1      HCL      0.330000       1.00800           0
     18664 MEMB     162      SOPE     HN2      HCL      0.330000       1.00800           0
     18665 MEMB     162      SOPE     HN3      HCL      0.330000       1.00800           0
     18666 MEMB     162      SOPE     C12      CTL2     0.130000       12.0110           0
     18667 MEMB     162      SOPE     H12A     HAL2     0.900000E-01   1.00800           0
     18668 MEMB     162      SOPE     H12B     HAL2     0.900000E-01   1.00800           0
     18669 MEMB     162      SOPE     C11      CTL2    -0.800000E-01   12.0110           0
     18670 MEMB     162      SOPE     H11A     HAL2     0.900000E-01   1.00800           0
     18671 MEMB     162      SOPE     H11B     HAL2     0.900000E-01   1.00800           0
     18672 MEMB     162      SOPE     P        PL        1.50000       30.9740           0
     18673 MEMB     162      SOPE     O13      O2L     -0.780000       15.9994           0
     18674 MEMB     162      SOPE     O14      O2L     -0.780000       15.9994           0
     18675 MEMB     162      SOPE     O12      OSLP    -0.570000       15.9994           0
     18676 MEMB     162      SOPE     O11      OSLP    -0.570000       15.9994           0
     18677 MEMB     162      SOPE     C1       CTL2    -0.800000E-01   12.0110           0
     18678 MEMB     162      SOPE     HA       HAL2     0.900000E-01   1.00800           0
     18679 MEMB     162      SOPE     HB       HAL2     0.900000E-01   1.00800           0
     18680 MEMB     162      SOPE     C2       CTL1     0.170000       12.0110           0
     18681 MEMB     162      SOPE     HS       HAL1     0.900000E-01   1.00800           0
     18682 MEMB     162      SOPE     O21      OSL     -0.490000       15.9994           0
     18683 MEMB     162      SOPE     C21      CL       0.900000       12.0110           0
     18684 MEMB     162      SOPE     O22      OBL     -0.630000       15.9994           0
     18685 MEMB     162      SOPE     C22      CTL2    -0.220000       12.0110           0
     18686 MEMB     162      SOPE     H2R      HAL2     0.900000E-01   1.00800           0
     18687 MEMB     162      SOPE     H2S      HAL2     0.900000E-01   1.00800           0
     18688 MEMB     162      SOPE     C3       CTL2     0.800000E-01   12.0110           0
     18689 MEMB     162      SOPE     HX       HAL2     0.900000E-01   1.00800           0
     18690 MEMB     162      SOPE     HY       HAL2     0.900000E-01   1.00800           0
     18691 MEMB     162      SOPE     O31      OSL     -0.490000       15.9994           0
     18692 MEMB     162      SOPE     C31      CL       0.900000       12.0110           0
     18693 MEMB     162      SOPE     O32      OBL     -0.630000       15.9994           0
     18694 MEMB     162      SOPE     C32      CTL2    -0.220000       12.0110           0
     18695 MEMB     162      SOPE     H2X      HAL2     0.900000E-01   1.00800           0
     18696 MEMB     162      SOPE     H2Y      HAL2     0.900000E-01   1.00800           0
     18697 MEMB     162      SOPE     C23      CTL2    -0.180000       12.0110           0
     18698 MEMB     162      SOPE     H3R      HAL2     0.900000E-01   1.00800           0
     18699 MEMB     162      SOPE     H3S      HAL2     0.900000E-01   1.00800           0
     18700 MEMB     162      SOPE     C24      CTL2    -0.180000       12.0110           0
     18701 MEMB     162      SOPE     H4R      HAL2     0.900000E-01   1.00800           0
     18702 MEMB     162      SOPE     H4S      HAL2     0.900000E-01   1.00800           0
     18703 MEMB     162      SOPE     C25      CTL2    -0.180000       12.0110           0
     18704 MEMB     162      SOPE     H5R      HAL2     0.900000E-01   1.00800           0
     18705 MEMB     162      SOPE     H5S      HAL2     0.900000E-01   1.00800           0
     18706 MEMB     162      SOPE     C26      CTL2    -0.180000       12.0110           0
     18707 MEMB     162      SOPE     H6R      HAL2     0.900000E-01   1.00800           0
     18708 MEMB     162      SOPE     H6S      HAL2     0.900000E-01   1.00800           0
     18709 MEMB     162      SOPE     C27      CTL2    -0.180000       12.0110           0
     18710 MEMB     162      SOPE     H7R      HAL2     0.900000E-01   1.00800           0
     18711 MEMB     162      SOPE     H7S      HAL2     0.900000E-01   1.00800           0
     18712 MEMB     162      SOPE     C28      CTL2    -0.180000       12.0110           0
     18713 MEMB     162      SOPE     H8R      HAL2     0.900000E-01   1.00800           0
     18714 MEMB     162      SOPE     H8S      HAL2     0.900000E-01   1.00800           0
     18715 MEMB     162      SOPE     C29      CEL1    -0.150000       12.0110           0
     18716 MEMB     162      SOPE     H91      HEL1     0.150000       1.00800           0
     18717 MEMB     162      SOPE     C210     CEL1    -0.150000       12.0110           0
     18718 MEMB     162      SOPE     H101     HEL1     0.150000       1.00800           0
     18719 MEMB     162      SOPE     C211     CTL2    -0.180000       12.0110           0
     18720 MEMB     162      SOPE     H11R     HAL2     0.900000E-01   1.00800           0
     18721 MEMB     162      SOPE     H11S     HAL2     0.900000E-01   1.00800           0
     18722 MEMB     162      SOPE     C212     CTL2    -0.180000       12.0110           0
     18723 MEMB     162      SOPE     H12R     HAL2     0.900000E-01   1.00800           0
     18724 MEMB     162      SOPE     H12S     HAL2     0.900000E-01   1.00800           0
     18725 MEMB     162      SOPE     C213     CTL2    -0.180000       12.0110           0
     18726 MEMB     162      SOPE     H13R     HAL2     0.900000E-01   1.00800           0
     18727 MEMB     162      SOPE     H13S     HAL2     0.900000E-01   1.00800           0
     18728 MEMB     162      SOPE     C214     CTL2    -0.180000       12.0110           0
     18729 MEMB     162      SOPE     H14R     HAL2     0.900000E-01   1.00800           0
     18730 MEMB     162      SOPE     H14S     HAL2     0.900000E-01   1.00800           0
     18731 MEMB     162      SOPE     C215     CTL2    -0.180000       12.0110           0
     18732 MEMB     162      SOPE     H15R     HAL2     0.900000E-01   1.00800           0
     18733 MEMB     162      SOPE     H15S     HAL2     0.900000E-01   1.00800           0
     18734 MEMB     162      SOPE     C216     CTL2    -0.180000       12.0110           0
     18735 MEMB     162      SOPE     H16R     HAL2     0.900000E-01   1.00800           0
     18736 MEMB     162      SOPE     H16S     HAL2     0.900000E-01   1.00800           0
     18737 MEMB     162      SOPE     C217     CTL2    -0.180000       12.0110           0
     18738 MEMB     162      SOPE     H17R     HAL2     0.900000E-01   1.00800           0
     18739 MEMB     162      SOPE     H17S     HAL2     0.900000E-01   1.00800           0
     18740 MEMB     162      SOPE     C218     CTL3    -0.270000       12.0110           0
     18741 MEMB     162      SOPE     H18R     HAL3     0.900000E-01   1.00800           0
     18742 MEMB     162      SOPE     H18S     HAL3     0.900000E-01   1.00800           0
     18743 MEMB     162      SOPE     H18T     HAL3     0.900000E-01   1.00800           0
     18744 MEMB     162      SOPE     C33      CTL2    -0.180000       12.0110           0
     18745 MEMB     162      SOPE     H3X      HAL2     0.900000E-01   1.00800           0
     18746 MEMB     162      SOPE     H3Y      HAL2     0.900000E-01   1.00800           0
     18747 MEMB     162      SOPE     C34      CTL2    -0.180000       12.0110           0
     18748 MEMB     162      SOPE     H4X      HAL2     0.900000E-01   1.00800           0
     18749 MEMB     162      SOPE     H4Y      HAL2     0.900000E-01   1.00800           0
     18750 MEMB     162      SOPE     C35      CTL2    -0.180000       12.0110           0
     18751 MEMB     162      SOPE     H5X      HAL2     0.900000E-01   1.00800           0
     18752 MEMB     162      SOPE     H5Y      HAL2     0.900000E-01   1.00800           0
     18753 MEMB     162      SOPE     C36      CTL2    -0.180000       12.0110           0
     18754 MEMB     162      SOPE     H6X      HAL2     0.900000E-01   1.00800           0
     18755 MEMB     162      SOPE     H6Y      HAL2     0.900000E-01   1.00800           0
     18756 MEMB     162      SOPE     C37      CTL2    -0.180000       12.0110           0
     18757 MEMB     162      SOPE     H7X      HAL2     0.900000E-01   1.00800           0
     18758 MEMB     162      SOPE     H7Y      HAL2     0.900000E-01   1.00800           0
     18759 MEMB     162      SOPE     C38      CTL2    -0.180000       12.0110           0
     18760 MEMB     162      SOPE     H8X      HAL2     0.900000E-01   1.00800           0
     18761 MEMB     162      SOPE     H8Y      HAL2     0.900000E-01   1.00800           0
     18762 MEMB     162      SOPE     C39      CTL2    -0.180000       12.0110           0
     18763 MEMB     162      SOPE     H9X      HAL2     0.900000E-01   1.00800           0
     18764 MEMB     162      SOPE     H9Y      HAL2     0.900000E-01   1.00800           0
     18765 MEMB     162      SOPE     C310     CTL2    -0.180000       12.0110           0
     18766 MEMB     162      SOPE     H10X     HAL2     0.900000E-01   1.00800           0
     18767 MEMB     162      SOPE     H10Y     HAL2     0.900000E-01   1.00800           0
     18768 MEMB     162      SOPE     C311     CTL2    -0.180000       12.0110           0
     18769 MEMB     162      SOPE     H11X     HAL2     0.900000E-01   1.00800           0
     18770 MEMB     162      SOPE     H11Y     HAL2     0.900000E-01   1.00800           0
     18771 MEMB     162      SOPE     C312     CTL2    -0.180000       12.0110           0
     18772 MEMB     162      SOPE     H12X     HAL2     0.900000E-01   1.00800           0
     18773 MEMB     162      SOPE     H12Y     HAL2     0.900000E-01   1.00800           0
     18774 MEMB     162      SOPE     C313     CTL2    -0.180000       12.0110           0
     18775 MEMB     162      SOPE     H13X     HAL2     0.900000E-01   1.00800           0
     18776 MEMB     162      SOPE     H13Y     HAL2     0.900000E-01   1.00800           0
     18777 MEMB     162      SOPE     C314     CTL2    -0.180000       12.0110           0
     18778 MEMB     162      SOPE     H14X     HAL2     0.900000E-01   1.00800           0
     18779 MEMB     162      SOPE     H14Y     HAL2     0.900000E-01   1.00800           0
     18780 MEMB     162      SOPE     C315     CTL2    -0.180000       12.0110           0
     18781 MEMB     162      SOPE     H15X     HAL2     0.900000E-01   1.00800           0
     18782 MEMB     162      SOPE     H15Y     HAL2     0.900000E-01   1.00800           0
     18783 MEMB     162      SOPE     C316     CTL2    -0.180000       12.0110           0
     18784 MEMB     162      SOPE     H16X     HAL2     0.900000E-01   1.00800           0
     18785 MEMB     162      SOPE     H16Y     HAL2     0.900000E-01   1.00800           0
     18786 MEMB     162      SOPE     C317     CTL2    -0.180000       12.0110           0
     18787 MEMB     162      SOPE     H17X     HAL2     0.900000E-01   1.00800           0
     18788 MEMB     162      SOPE     H17Y     HAL2     0.900000E-01   1.00800           0
     18789 MEMB     162      SOPE     C318     CTL3    -0.270000       12.0110           0
     18790 MEMB     162      SOPE     H18X     HAL3     0.900000E-01   1.00800           0
     18791 MEMB     162      SOPE     H18Y     HAL3     0.900000E-01   1.00800           0
     18792 MEMB     162      SOPE     H18Z     HAL3     0.900000E-01   1.00800           0
     18793 MEMB     163      SAPC     N        NTL     -0.600000       14.0070           0
     18794 MEMB     163      SAPC     C12      CTL2    -0.100000       12.0110           0
     18795 MEMB     163      SAPC     H12A     HL       0.250000       1.00800           0
     18796 MEMB     163      SAPC     H12B     HL       0.250000       1.00800           0
     18797 MEMB     163      SAPC     C13      CTL5    -0.350000       12.0110           0
     18798 MEMB     163      SAPC     H13A     HL       0.250000       1.00800           0
     18799 MEMB     163      SAPC     H13B     HL       0.250000       1.00800           0
     18800 MEMB     163      SAPC     H13C     HL       0.250000       1.00800           0
     18801 MEMB     163      SAPC     C14      CTL5    -0.350000       12.0110           0
     18802 MEMB     163      SAPC     H14A     HL       0.250000       1.00800           0
     18803 MEMB     163      SAPC     H14B     HL       0.250000       1.00800           0
     18804 MEMB     163      SAPC     H14C     HL       0.250000       1.00800           0
     18805 MEMB     163      SAPC     C15      CTL5    -0.350000       12.0110           0
     18806 MEMB     163      SAPC     H15A     HL       0.250000       1.00800           0
     18807 MEMB     163      SAPC     H15B     HL       0.250000       1.00800           0
     18808 MEMB     163      SAPC     H15C     HL       0.250000       1.00800           0
     18809 MEMB     163      SAPC     C11      CTL2    -0.800000E-01   12.0110           0
     18810 MEMB     163      SAPC     H11A     HAL2     0.900000E-01   1.00800           0
     18811 MEMB     163      SAPC     H11B     HAL2     0.900000E-01   1.00800           0
     18812 MEMB     163      SAPC     P        PL        1.50000       30.9740           0
     18813 MEMB     163      SAPC     O13      O2L     -0.780000       15.9994           0
     18814 MEMB     163      SAPC     O14      O2L     -0.780000       15.9994           0
     18815 MEMB     163      SAPC     O12      OSLP    -0.570000       15.9994           0
     18816 MEMB     163      SAPC     O11      OSLP    -0.570000       15.9994           0
     18817 MEMB     163      SAPC     C1       CTL2    -0.800000E-01   12.0110           0
     18818 MEMB     163      SAPC     HA       HAL2     0.900000E-01   1.00800           0
     18819 MEMB     163      SAPC     HB       HAL2     0.900000E-01   1.00800           0
     18820 MEMB     163      SAPC     C2       CTL1     0.170000       12.0110           0
     18821 MEMB     163      SAPC     HS       HAL1     0.900000E-01   1.00800           0
     18822 MEMB     163      SAPC     O21      OSL     -0.490000       15.9994           0
     18823 MEMB     163      SAPC     C21      CL       0.900000       12.0110           0
     18824 MEMB     163      SAPC     O22      OBL     -0.630000       15.9994           0
     18825 MEMB     163      SAPC     C22      CTL2    -0.220000       12.0110           0
     18826 MEMB     163      SAPC     H2R      HAL2     0.900000E-01   1.00800           0
     18827 MEMB     163      SAPC     H2S      HAL2     0.900000E-01   1.00800           0
     18828 MEMB     163      SAPC     C3       CTL2     0.800000E-01   12.0110           0
     18829 MEMB     163      SAPC     HX       HAL2     0.900000E-01   1.00800           0
     18830 MEMB     163      SAPC     HY       HAL2     0.900000E-01   1.00800           0
     18831 MEMB     163      SAPC     O31      OSL     -0.490000       15.9994           0
     18832 MEMB     163      SAPC     C31      CL       0.900000       12.0110           0
     18833 MEMB     163      SAPC     O32      OBL     -0.630000       15.9994           0
     18834 MEMB     163      SAPC     C32      CTL2    -0.220000       12.0110           0
     18835 MEMB     163      SAPC     H2X      HAL2     0.900000E-01   1.00800           0
     18836 MEMB     163      SAPC     H2Y      HAL2     0.900000E-01   1.00800           0
     18837 MEMB     163      SAPC     C23      CTL2    -0.180000       12.0110           0
     18838 MEMB     163      SAPC     H3R      HAL2     0.900000E-01   1.00800           0
     18839 MEMB     163      SAPC     H3S      HAL2     0.900000E-01   1.00800           0
     18840 MEMB     163      SAPC     C24      CTL2    -0.180000       12.0110           0
     18841 MEMB     163      SAPC     H4R      HAL2     0.900000E-01   1.00800           0
     18842 MEMB     163      SAPC     H4S      HAL2     0.900000E-01   1.00800           0
     18843 MEMB     163      SAPC     C25      CEL1    -0.150000       12.0110           0
     18844 MEMB     163      SAPC     H5R      HEL1     0.150000       1.00800           0
     18845 MEMB     163      SAPC     C26      CEL1    -0.150000       12.0110           0
     18846 MEMB     163      SAPC     H6R      HEL1     0.150000       1.00800           0
     18847 MEMB     163      SAPC     C27      CTL2    -0.180000       12.0110           0
     18848 MEMB     163      SAPC     H7R      HAL2     0.900000E-01   1.00800           0
     18849 MEMB     163      SAPC     H7S      HAL2     0.900000E-01   1.00800           0
     18850 MEMB     163      SAPC     C28      CEL1    -0.150000       12.0110           0
     18851 MEMB     163      SAPC     H8R      HEL1     0.150000       1.00800           0
     18852 MEMB     163      SAPC     C29      CEL1    -0.150000       12.0110           0
     18853 MEMB     163      SAPC     H9R      HEL1     0.150000       1.00800           0
     18854 MEMB     163      SAPC     C210     CTL2    -0.180000       12.0110           0
     18855 MEMB     163      SAPC     H10R     HAL2     0.900000E-01   1.00800           0
     18856 MEMB     163      SAPC     H10S     HAL2     0.900000E-01   1.00800           0
     18857 MEMB     163      SAPC     C211     CEL1    -0.150000       12.0110           0
     18858 MEMB     163      SAPC     H11R     HEL1     0.150000       1.00800           0
     18859 MEMB     163      SAPC     C212     CEL1    -0.150000       12.0110           0
     18860 MEMB     163      SAPC     H12R     HEL1     0.150000       1.00800           0
     18861 MEMB     163      SAPC     C213     CTL2    -0.180000       12.0110           0
     18862 MEMB     163      SAPC     H13R     HAL2     0.900000E-01   1.00800           0
     18863 MEMB     163      SAPC     H13S     HAL2     0.900000E-01   1.00800           0
     18864 MEMB     163      SAPC     C214     CEL1    -0.150000       12.0110           0
     18865 MEMB     163      SAPC     H14R     HEL1     0.150000       1.00800           0
     18866 MEMB     163      SAPC     C215     CEL1    -0.150000       12.0110           0
     18867 MEMB     163      SAPC     H15R     HEL1     0.150000       1.00800           0
     18868 MEMB     163      SAPC     C216     CTL2    -0.180000       12.0110           0
     18869 MEMB     163      SAPC     H16R     HAL2     0.900000E-01   1.00800           0
     18870 MEMB     163      SAPC     H16S     HAL2     0.900000E-01   1.00800           0
     18871 MEMB     163      SAPC     C217     CTL2    -0.180000       12.0110           0
     18872 MEMB     163      SAPC     H17R     HAL2     0.900000E-01   1.00800           0
     18873 MEMB     163      SAPC     H17S     HAL2     0.900000E-01   1.00800           0
     18874 MEMB     163      SAPC     C218     CTL2    -0.270000       12.0110           0
     18875 MEMB     163      SAPC     H18R     HAL2     0.900000E-01   1.00800           0
     18876 MEMB     163      SAPC     H18S     HAL2     0.900000E-01   1.00800           0
     18877 MEMB     163      SAPC     C219     CTL2    -0.180000       12.0110           0
     18878 MEMB     163      SAPC     H19R     HAL2     0.900000E-01   1.00800           0
     18879 MEMB     163      SAPC     H19S     HAL2     0.900000E-01   1.00800           0
     18880 MEMB     163      SAPC     C220     CTL3    -0.180000       12.0110           0
     18881 MEMB     163      SAPC     H20R     HAL3     0.900000E-01   1.00800           0
     18882 MEMB     163      SAPC     H20S     HAL3     0.900000E-01   1.00800           0
     18883 MEMB     163      SAPC     H20T     HAL3     0.900000E-01   1.00800           0
     18884 MEMB     163      SAPC     C33      CTL2    -0.180000       12.0110           0
     18885 MEMB     163      SAPC     H3X      HAL2     0.900000E-01   1.00800           0
     18886 MEMB     163      SAPC     H3Y      HAL2     0.900000E-01   1.00800           0
     18887 MEMB     163      SAPC     C34      CTL2    -0.180000       12.0110           0
     18888 MEMB     163      SAPC     H4X      HAL2     0.900000E-01   1.00800           0
     18889 MEMB     163      SAPC     H4Y      HAL2     0.900000E-01   1.00800           0
     18890 MEMB     163      SAPC     C35      CTL2    -0.180000       12.0110           0
     18891 MEMB     163      SAPC     H5X      HAL2     0.900000E-01   1.00800           0
     18892 MEMB     163      SAPC     H5Y      HAL2     0.900000E-01   1.00800           0
     18893 MEMB     163      SAPC     C36      CTL2    -0.180000       12.0110           0
     18894 MEMB     163      SAPC     H6X      HAL2     0.900000E-01   1.00800           0
     18895 MEMB     163      SAPC     H6Y      HAL2     0.900000E-01   1.00800           0
     18896 MEMB     163      SAPC     C37      CTL2    -0.180000       12.0110           0
     18897 MEMB     163      SAPC     H7X      HAL2     0.900000E-01   1.00800           0
     18898 MEMB     163      SAPC     H7Y      HAL2     0.900000E-01   1.00800           0
     18899 MEMB     163      SAPC     C38      CTL2    -0.180000       12.0110           0
     18900 MEMB     163      SAPC     H8X      HAL2     0.900000E-01   1.00800           0
     18901 MEMB     163      SAPC     H8Y      HAL2     0.900000E-01   1.00800           0
     18902 MEMB     163      SAPC     C39      CTL2    -0.180000       12.0110           0
     18903 MEMB     163      SAPC     H9X      HAL2     0.900000E-01   1.00800           0
     18904 MEMB     163      SAPC     H9Y      HAL2     0.900000E-01   1.00800           0
     18905 MEMB     163      SAPC     C310     CTL2    -0.180000       12.0110           0
     18906 MEMB     163      SAPC     H10X     HAL2     0.900000E-01   1.00800           0
     18907 MEMB     163      SAPC     H10Y     HAL2     0.900000E-01   1.00800           0
     18908 MEMB     163      SAPC     C311     CTL2    -0.180000       12.0110           0
     18909 MEMB     163      SAPC     H11X     HAL2     0.900000E-01   1.00800           0
     18910 MEMB     163      SAPC     H11Y     HAL2     0.900000E-01   1.00800           0
     18911 MEMB     163      SAPC     C312     CTL2    -0.180000       12.0110           0
     18912 MEMB     163      SAPC     H12X     HAL2     0.900000E-01   1.00800           0
     18913 MEMB     163      SAPC     H12Y     HAL2     0.900000E-01   1.00800           0
     18914 MEMB     163      SAPC     C313     CTL2    -0.180000       12.0110           0
     18915 MEMB     163      SAPC     H13X     HAL2     0.900000E-01   1.00800           0
     18916 MEMB     163      SAPC     H13Y     HAL2     0.900000E-01   1.00800           0
     18917 MEMB     163      SAPC     C314     CTL2    -0.180000       12.0110           0
     18918 MEMB     163      SAPC     H14X     HAL2     0.900000E-01   1.00800           0
     18919 MEMB     163      SAPC     H14Y     HAL2     0.900000E-01   1.00800           0
     18920 MEMB     163      SAPC     C315     CTL2    -0.180000       12.0110           0
     18921 MEMB     163      SAPC     H15X     HAL2     0.900000E-01   1.00800           0
     18922 MEMB     163      SAPC     H15Y     HAL2     0.900000E-01   1.00800           0
     18923 MEMB     163      SAPC     C316     CTL2    -0.180000       12.0110           0
     18924 MEMB     163      SAPC     H16X     HAL2     0.900000E-01   1.00800           0
     18925 MEMB     163      SAPC     H16Y     HAL2     0.900000E-01   1.00800           0
     18926 MEMB     163      SAPC     C317     CTL2    -0.180000       12.0110           0
     18927 MEMB     163      SAPC     H17X     HAL2     0.900000E-01   1.00800           0
     18928 MEMB     163      SAPC     H17Y     HAL2     0.900000E-01   1.00800           0
     18929 MEMB     163      SAPC     C318     CTL3    -0.270000       12.0110           0
     18930 MEMB     163      SAPC     H18X     HAL3     0.900000E-01   1.00800           0
     18931 MEMB     163      SAPC     H18Y     HAL3     0.900000E-01   1.00800           0
     18932 MEMB     163      SAPC     H18Z     HAL3     0.900000E-01   1.00800           0
     18933 MEMB     164      CHL1     C3       CRL1     0.140000       12.0110           0
     18934 MEMB     164      CHL1     H3       HGA1     0.900000E-01   1.00800           0
     18935 MEMB     164      CHL1     O3       OHL     -0.660000       15.9994           0
     18936 MEMB     164      CHL1     H3'      HOL      0.430000       1.00800           0
     18937 MEMB     164      CHL1     C4       CRL2    -0.180000       12.0110           0
     18938 MEMB     164      CHL1     H4A      HGA2     0.900000E-01   1.00800           0
     18939 MEMB     164      CHL1     H4B      HGA2     0.900000E-01   1.00800           0
     18940 MEMB     164      CHL1     C5       CEL1      0.00000       12.0110           0
     18941 MEMB     164      CHL1     C6       CEL1    -0.150000       12.0110           0
     18942 MEMB     164      CHL1     H6       HEL1     0.150000       1.00800           0
     18943 MEMB     164      CHL1     C7       CRL2    -0.180000       12.0110           0
     18944 MEMB     164      CHL1     H7A      HGA2     0.900000E-01   1.00800           0
     18945 MEMB     164      CHL1     H7B      HGA2     0.900000E-01   1.00800           0
     18946 MEMB     164      CHL1     C8       CRL1    -0.900000E-01   12.0110           0
     18947 MEMB     164      CHL1     H8       HGA1     0.900000E-01   1.00800           0
     18948 MEMB     164      CHL1     C14      CRL1    -0.900000E-01   12.0110           0
     18949 MEMB     164      CHL1     H14      HGA1     0.900000E-01   1.00800           0
     18950 MEMB     164      CHL1     C15      CRL2    -0.180000       12.0110           0
     18951 MEMB     164      CHL1     H15A     HGA2     0.900000E-01   1.00800           0
     18952 MEMB     164      CHL1     H15B     HGA2     0.900000E-01   1.00800           0
     18953 MEMB     164      CHL1     C16      CRL2    -0.180000       12.0110           0
     18954 MEMB     164      CHL1     H16A     HGA2     0.900000E-01   1.00800           0
     18955 MEMB     164      CHL1     H16B     HGA2     0.900000E-01   1.00800           0
     18956 MEMB     164      CHL1     C17      CRL1    -0.900000E-01   12.0110           0
     18957 MEMB     164      CHL1     H17      HGA1     0.900000E-01   1.00800           0
     18958 MEMB     164      CHL1     C13      CRL1      0.00000       12.0110           0
     18959 MEMB     164      CHL1     C18      CTL3    -0.270000       12.0110           0
     18960 MEMB     164      CHL1     H18A     HAL3     0.900000E-01   1.00800           0
     18961 MEMB     164      CHL1     H18B     HAL3     0.900000E-01   1.00800           0
     18962 MEMB     164      CHL1     H18C     HAL3     0.900000E-01   1.00800           0
     18963 MEMB     164      CHL1     C12      CRL2    -0.180000       12.0110           0
     18964 MEMB     164      CHL1     H12A     HGA2     0.900000E-01   1.00800           0
     18965 MEMB     164      CHL1     H12B     HGA2     0.900000E-01   1.00800           0
     18966 MEMB     164      CHL1     C11      CRL2    -0.180000       12.0110           0
     18967 MEMB     164      CHL1     H11A     HGA2     0.900000E-01   1.00800           0
     18968 MEMB     164      CHL1     H11B     HGA2     0.900000E-01   1.00800           0
     18969 MEMB     164      CHL1     C9       CRL1    -0.900000E-01   12.0110           0
     18970 MEMB     164      CHL1     H9       HGA1     0.900000E-01   1.00800           0
     18971 MEMB     164      CHL1     C10      CRL1      0.00000       12.0110           0
     18972 MEMB     164      CHL1     C19      CTL3    -0.270000       12.0110           0
     18973 MEMB     164      CHL1     H19A     HAL3     0.900000E-01   1.00800           0
     18974 MEMB     164      CHL1     H19B     HAL3     0.900000E-01   1.00800           0
     18975 MEMB     164      CHL1     H19C     HAL3     0.900000E-01   1.00800           0
     18976 MEMB     164      CHL1     C1       CRL2    -0.180000       12.0110           0
     18977 MEMB     164      CHL1     H1A      HGA2     0.900000E-01   1.00800           0
     18978 MEMB     164      CHL1     H1B      HGA2     0.900000E-01   1.00800           0
     18979 MEMB     164      CHL1     C2       CRL2    -0.180000       12.0110           0
     18980 MEMB     164      CHL1     H2A      HGA2     0.900000E-01   1.00800           0
     18981 MEMB     164      CHL1     H2B      HGA2     0.900000E-01   1.00800           0
     18982 MEMB     164      CHL1     C20      CTL1    -0.900000E-01   12.0110           0
     18983 MEMB     164      CHL1     H20      HAL1     0.900000E-01   1.00800           0
     18984 MEMB     164      CHL1     C21      CTL3    -0.270000       12.0110           0
     18985 MEMB     164      CHL1     H21A     HAL3     0.900000E-01   1.00800           0
     18986 MEMB     164      CHL1     H21B     HAL3     0.900000E-01   1.00800           0
     18987 MEMB     164      CHL1     H21C     HAL3     0.900000E-01   1.00800           0
     18988 MEMB     164      CHL1     C22      CTL2    -0.180000       12.0110           0
     18989 MEMB     164      CHL1     H22A     HAL2     0.900000E-01   1.00800           0
     18990 MEMB     164      CHL1     H22B     HAL2     0.900000E-01   1.00800           0
     18991 MEMB     164      CHL1     C23      CTL2    -0.180000       12.0110           0
     18992 MEMB     164      CHL1     H23A     HAL2     0.900000E-01   1.00800           0
     18993 MEMB     164      CHL1     H23B     HAL2     0.900000E-01   1.00800           0
     18994 MEMB     164      CHL1     C24      CTL2    -0.180000       12.0110           0
     18995 MEMB     164      CHL1     H24A     HAL2     0.900000E-01   1.00800           0
     18996 MEMB     164      CHL1     H24B     HAL2     0.900000E-01   1.00800           0
     18997 MEMB     164      CHL1     C25      CTL1    -0.900000E-01   12.0110           0
     18998 MEMB     164      CHL1     H25      HAL1     0.900000E-01   1.00800           0
     18999 MEMB     164      CHL1     C26      CTL3    -0.270000       12.0110           0
     19000 MEMB     164      CHL1     H26A     HAL3     0.900000E-01   1.00800           0
     19001 MEMB     164      CHL1     H26B     HAL3     0.900000E-01   1.00800           0
     19002 MEMB     164      CHL1     H26C     HAL3     0.900000E-01   1.00800           0
     19003 MEMB     164      CHL1     C27      CTL3    -0.270000       12.0110           0
     19004 MEMB     164      CHL1     H27A     HAL3     0.900000E-01   1.00800           0
     19005 MEMB     164      CHL1     H27B     HAL3     0.900000E-01   1.00800           0
     19006 MEMB     164      CHL1     H27C     HAL3     0.900000E-01   1.00800           0
     19007 MEMB     165      SAPE     N        NH3L    -0.300000       14.0070           0
     19008 MEMB     165      SAPE     HN1      HCL      0.330000       1.00800           0
     19009 MEMB     165      SAPE     HN2      HCL      0.330000       1.00800           0
     19010 MEMB     165      SAPE     HN3      HCL      0.330000       1.00800           0
     19011 MEMB     165      SAPE     C12      CTL2     0.130000       12.0110           0
     19012 MEMB     165      SAPE     H12A     HAL2     0.900000E-01   1.00800           0
     19013 MEMB     165      SAPE     H12B     HAL2     0.900000E-01   1.00800           0
     19014 MEMB     165      SAPE     C11      CTL2    -0.800000E-01   12.0110           0
     19015 MEMB     165      SAPE     H11A     HAL2     0.900000E-01   1.00800           0
     19016 MEMB     165      SAPE     H11B     HAL2     0.900000E-01   1.00800           0
     19017 MEMB     165      SAPE     P        PL        1.50000       30.9740           0
     19018 MEMB     165      SAPE     O13      O2L     -0.780000       15.9994           0
     19019 MEMB     165      SAPE     O14      O2L     -0.780000       15.9994           0
     19020 MEMB     165      SAPE     O12      OSLP    -0.570000       15.9994           0
     19021 MEMB     165      SAPE     O11      OSLP    -0.570000       15.9994           0
     19022 MEMB     165      SAPE     C1       CTL2    -0.800000E-01   12.0110           0
     19023 MEMB     165      SAPE     HA       HAL2     0.900000E-01   1.00800           0
     19024 MEMB     165      SAPE     HB       HAL2     0.900000E-01   1.00800           0
     19025 MEMB     165      SAPE     C2       CTL1     0.170000       12.0110           0
     19026 MEMB     165      SAPE     HS       HAL1     0.900000E-01   1.00800           0
     19027 MEMB     165      SAPE     O21      OSL     -0.490000       15.9994           0
     19028 MEMB     165      SAPE     C21      CL       0.900000       12.0110           0
     19029 MEMB     165      SAPE     O22      OBL     -0.630000       15.9994           0
     19030 MEMB     165      SAPE     C22      CTL2    -0.220000       12.0110           0
     19031 MEMB     165      SAPE     H2R      HAL2     0.900000E-01   1.00800           0
     19032 MEMB     165      SAPE     H2S      HAL2     0.900000E-01   1.00800           0
     19033 MEMB     165      SAPE     C3       CTL2     0.800000E-01   12.0110           0
     19034 MEMB     165      SAPE     HX       HAL2     0.900000E-01   1.00800           0
     19035 MEMB     165      SAPE     HY       HAL2     0.900000E-01   1.00800           0
     19036 MEMB     165      SAPE     O31      OSL     -0.490000       15.9994           0
     19037 MEMB     165      SAPE     C31      CL       0.900000       12.0110           0
     19038 MEMB     165      SAPE     O32      OBL     -0.630000       15.9994           0
     19039 MEMB     165      SAPE     C32      CTL2    -0.220000       12.0110           0
     19040 MEMB     165      SAPE     H2X      HAL2     0.900000E-01   1.00800           0
     19041 MEMB     165      SAPE     H2Y      HAL2     0.900000E-01   1.00800           0
     19042 MEMB     165      SAPE     C23      CTL2    -0.180000       12.0110           0
     19043 MEMB     165      SAPE     H3R      HAL2     0.900000E-01   1.00800           0
     19044 MEMB     165      SAPE     H3S      HAL2     0.900000E-01   1.00800           0
     19045 MEMB     165      SAPE     C24      CTL2    -0.180000       12.0110           0
     19046 MEMB     165      SAPE     H4R      HAL2     0.900000E-01   1.00800           0
     19047 MEMB     165      SAPE     H4S      HAL2     0.900000E-01   1.00800           0
     19048 MEMB     165      SAPE     C25      CEL1    -0.150000       12.0110           0
     19049 MEMB     165      SAPE     H5R      HEL1     0.150000       1.00800           0
     19050 MEMB     165      SAPE     C26      CEL1    -0.150000       12.0110           0
     19051 MEMB     165      SAPE     H6R      HEL1     0.150000       1.00800           0
     19052 MEMB     165      SAPE     C27      CTL2    -0.180000       12.0110           0
     19053 MEMB     165      SAPE     H7R      HAL2     0.900000E-01   1.00800           0
     19054 MEMB     165      SAPE     H7S      HAL2     0.900000E-01   1.00800           0
     19055 MEMB     165      SAPE     C28      CEL1    -0.150000       12.0110           0
     19056 MEMB     165      SAPE     H8R      HEL1     0.150000       1.00800           0
     19057 MEMB     165      SAPE     C29      CEL1    -0.150000       12.0110           0
     19058 MEMB     165      SAPE     H9R      HEL1     0.150000       1.00800           0
     19059 MEMB     165      SAPE     C210     CTL2    -0.180000       12.0110           0
     19060 MEMB     165      SAPE     H10R     HAL2     0.900000E-01   1.00800           0
     19061 MEMB     165      SAPE     H10S     HAL2     0.900000E-01   1.00800           0
     19062 MEMB     165      SAPE     C211     CEL1    -0.150000       12.0110           0
     19063 MEMB     165      SAPE     H11R     HEL1     0.150000       1.00800           0
     19064 MEMB     165      SAPE     C212     CEL1    -0.150000       12.0110           0
     19065 MEMB     165      SAPE     H12R     HEL1     0.150000       1.00800           0
     19066 MEMB     165      SAPE     C213     CTL2    -0.180000       12.0110           0
     19067 MEMB     165      SAPE     H13R     HAL2     0.900000E-01   1.00800           0
     19068 MEMB     165      SAPE     H13S     HAL2     0.900000E-01   1.00800           0
     19069 MEMB     165      SAPE     C214     CEL1    -0.150000       12.0110           0
     19070 MEMB     165      SAPE     H14R     HEL1     0.150000       1.00800           0
     19071 MEMB     165      SAPE     C215     CEL1    -0.150000       12.0110           0
     19072 MEMB     165      SAPE     H15R     HEL1     0.150000       1.00800           0
     19073 MEMB     165      SAPE     C216     CTL2    -0.180000       12.0110           0
     19074 MEMB     165      SAPE     H16R     HAL2     0.900000E-01   1.00800           0
     19075 MEMB     165      SAPE     H16S     HAL2     0.900000E-01   1.00800           0
     19076 MEMB     165      SAPE     C217     CTL2    -0.180000       12.0110           0
     19077 MEMB     165      SAPE     H17R     HAL2     0.900000E-01   1.00800           0
     19078 MEMB     165      SAPE     H17S     HAL2     0.900000E-01   1.00800           0
     19079 MEMB     165      SAPE     C218     CTL2    -0.180000       12.0110           0
     19080 MEMB     165      SAPE     H18R     HAL2     0.900000E-01   1.00800           0
     19081 MEMB     165      SAPE     H18S     HAL2     0.900000E-01   1.00800           0
     19082 MEMB     165      SAPE     C219     CTL2    -0.180000       12.0110           0
     19083 MEMB     165      SAPE     H19R     HAL2     0.900000E-01   1.00800           0
     19084 MEMB     165      SAPE     H19S     HAL2     0.900000E-01   1.00800           0
     19085 MEMB     165      SAPE     C220     CTL3    -0.270000       12.0110           0
     19086 MEMB     165      SAPE     H20R     HAL3     0.900000E-01   1.00800           0
     19087 MEMB     165      SAPE     H20S     HAL3     0.900000E-01   1.00800           0
     19088 MEMB     165      SAPE     H20T     HAL3     0.900000E-01   1.00800           0
     19089 MEMB     165      SAPE     C33      CTL2    -0.180000       12.0110           0
     19090 MEMB     165      SAPE     H3X      HAL2     0.900000E-01   1.00800           0
     19091 MEMB     165      SAPE     H3Y      HAL2     0.900000E-01   1.00800           0
     19092 MEMB     165      SAPE     C34      CTL2    -0.180000       12.0110           0
     19093 MEMB     165      SAPE     H4X      HAL2     0.900000E-01   1.00800           0
     19094 MEMB     165      SAPE     H4Y      HAL2     0.900000E-01   1.00800           0
     19095 MEMB     165      SAPE     C35      CTL2    -0.180000       12.0110           0
     19096 MEMB     165      SAPE     H5X      HAL2     0.900000E-01   1.00800           0
     19097 MEMB     165      SAPE     H5Y      HAL2     0.900000E-01   1.00800           0
     19098 MEMB     165      SAPE     C36      CTL2    -0.180000       12.0110           0
     19099 MEMB     165      SAPE     H6X      HAL2     0.900000E-01   1.00800           0
     19100 MEMB     165      SAPE     H6Y      HAL2     0.900000E-01   1.00800           0
     19101 MEMB     165      SAPE     C37      CTL2    -0.180000       12.0110           0
     19102 MEMB     165      SAPE     H7X      HAL2     0.900000E-01   1.00800           0
     19103 MEMB     165      SAPE     H7Y      HAL2     0.900000E-01   1.00800           0
     19104 MEMB     165      SAPE     C38      CTL2    -0.180000       12.0110           0
     19105 MEMB     165      SAPE     H8X      HAL2     0.900000E-01   1.00800           0
     19106 MEMB     165      SAPE     H8Y      HAL2     0.900000E-01   1.00800           0
     19107 MEMB     165      SAPE     C39      CTL2    -0.180000       12.0110           0
     19108 MEMB     165      SAPE     H9X      HAL2     0.900000E-01   1.00800           0
     19109 MEMB     165      SAPE     H9Y      HAL2     0.900000E-01   1.00800           0
     19110 MEMB     165      SAPE     C310     CTL2    -0.180000       12.0110           0
     19111 MEMB     165      SAPE     H10X     HAL2     0.900000E-01   1.00800           0
     19112 MEMB     165      SAPE     H10Y     HAL2     0.900000E-01   1.00800           0
     19113 MEMB     165      SAPE     C311     CTL2    -0.180000       12.0110           0
     19114 MEMB     165      SAPE     H11X     HAL2     0.900000E-01   1.00800           0
     19115 MEMB     165      SAPE     H11Y     HAL2     0.900000E-01   1.00800           0
     19116 MEMB     165      SAPE     C312     CTL2    -0.180000       12.0110           0
     19117 MEMB     165      SAPE     H12X     HAL2     0.900000E-01   1.00800           0
     19118 MEMB     165      SAPE     H12Y     HAL2     0.900000E-01   1.00800           0
     19119 MEMB     165      SAPE     C313     CTL2    -0.180000       12.0110           0
     19120 MEMB     165      SAPE     H13X     HAL2     0.900000E-01   1.00800           0
     19121 MEMB     165      SAPE     H13Y     HAL2     0.900000E-01   1.00800           0
     19122 MEMB     165      SAPE     C314     CTL2    -0.180000       12.0110           0
     19123 MEMB     165      SAPE     H14X     HAL2     0.900000E-01   1.00800           0
     19124 MEMB     165      SAPE     H14Y     HAL2     0.900000E-01   1.00800           0
     19125 MEMB     165      SAPE     C315     CTL2    -0.180000       12.0110           0
     19126 MEMB     165      SAPE     H15X     HAL2     0.900000E-01   1.00800           0
     19127 MEMB     165      SAPE     H15Y     HAL2     0.900000E-01   1.00800           0
     19128 MEMB     165      SAPE     C316     CTL2    -0.180000       12.0110           0
     19129 MEMB     165      SAPE     H16X     HAL2     0.900000E-01   1.00800           0
     19130 MEMB     165      SAPE     H16Y     HAL2     0.900000E-01   1.00800           0
     19131 MEMB     165      SAPE     C317     CTL2    -0.180000       12.0110           0
     19132 MEMB     165      SAPE     H17X     HAL2     0.900000E-01   1.00800           0
     19133 MEMB     165      SAPE     H17Y     HAL2     0.900000E-01   1.00800           0
     19134 MEMB     165      SAPE     C318     CTL3    -0.270000       12.0110           0
     19135 MEMB     165      SAPE     H18X     HAL3     0.900000E-01   1.00800           0
     19136 MEMB     165      SAPE     H18Y     HAL3     0.900000E-01   1.00800           0
     19137 MEMB     165      SAPE     H18Z     HAL3     0.900000E-01   1.00800           0
     19138 MEMB     166      OSM      N        NTL     -0.600000       14.0070           0
     19139 MEMB     166      OSM      C15      CTL5    -0.350000       12.0110           0
     19140 MEMB     166      OSM      H15A     HL       0.250000       1.00800           0
     19141 MEMB     166      OSM      H15B     HL       0.250000       1.00800           0
     19142 MEMB     166      OSM      H15C     HL       0.250000       1.00800           0
     19143 MEMB     166      OSM      C14      CTL5    -0.350000       12.0110           0
     19144 MEMB     166      OSM      H14A     HL       0.250000       1.00800           0
     19145 MEMB     166      OSM      H14B     HL       0.250000       1.00800           0
     19146 MEMB     166      OSM      H14C     HL       0.250000       1.00800           0
     19147 MEMB     166      OSM      C13      CTL5    -0.350000       12.0110           0
     19148 MEMB     166      OSM      H13A     HL       0.250000       1.00800           0
     19149 MEMB     166      OSM      H13B     HL       0.250000       1.00800           0
     19150 MEMB     166      OSM      H13C     HL       0.250000       1.00800           0
     19151 MEMB     166      OSM      C12      CTL2    -0.100000       12.0110           0
     19152 MEMB     166      OSM      H12A     HL       0.250000       1.00800           0
     19153 MEMB     166      OSM      H12B     HL       0.250000       1.00800           0
     19154 MEMB     166      OSM      C11      CTL2    -0.800000E-01   12.0110           0
     19155 MEMB     166      OSM      H11A     HAL2     0.900000E-01   1.00800           0
     19156 MEMB     166      OSM      H11B     HAL2     0.900000E-01   1.00800           0
     19157 MEMB     166      OSM      P        PL        1.50000       30.9740           0
     19158 MEMB     166      OSM      O13      O2L     -0.780000       15.9994           0
     19159 MEMB     166      OSM      O14      O2L     -0.780000       15.9994           0
     19160 MEMB     166      OSM      O11      OSLP    -0.570000       15.9994           0
     19161 MEMB     166      OSM      O12      OSLP    -0.570000       15.9994           0
     19162 MEMB     166      OSM      C1S      CTL2    -0.800000E-01   12.0110           0
     19163 MEMB     166      OSM      H1S      HAL2     0.900000E-01   1.00800           0
     19164 MEMB     166      OSM      H1T      HAL2     0.900000E-01   1.00800           0
     19165 MEMB     166      OSM      NF       NHL     -0.700000       14.0070           0
     19166 MEMB     166      OSM      HNF      H        0.350000       1.00800           0
     19167 MEMB     166      OSM      C2S      CTL1     0.300000       12.0110           0
     19168 MEMB     166      OSM      H2S      HAL1     0.500000E-01   1.00800           0
     19169 MEMB     166      OSM      C3S      CTO1     0.500000       12.0110           0
     19170 MEMB     166      OSM      H3S      HAL1    -0.110000       1.00800           0
     19171 MEMB     166      OSM      O3       OHL     -0.690000       15.9994           0
     19172 MEMB     166      OSM      HO3      HOL      0.300000       1.00800           0
     19173 MEMB     166      OSM      C4S      CEL3    -0.150000       12.0110           0
     19174 MEMB     166      OSM      H4S      HEL1     0.150000       1.00800           0
     19175 MEMB     166      OSM      C5S      CEL3    -0.150000       12.0110           0
     19176 MEMB     166      OSM      H5S      HEL1     0.150000       1.00800           0
     19177 MEMB     166      OSM      C6S      CTL2    -0.180000       12.0110           0
     19178 MEMB     166      OSM      H6S      HAL2     0.900000E-01   1.00800           0
     19179 MEMB     166      OSM      H6T      HAL2     0.900000E-01   1.00800           0
     19180 MEMB     166      OSM      C7S      CTL2    -0.180000       12.0110           0
     19181 MEMB     166      OSM      H7S      HAL2     0.900000E-01   1.00800           0
     19182 MEMB     166      OSM      H7T      HAL2     0.900000E-01   1.00800           0
     19183 MEMB     166      OSM      C8S      CTL2    -0.180000       12.0110           0
     19184 MEMB     166      OSM      H8S      HAL2     0.900000E-01   1.00800           0
     19185 MEMB     166      OSM      H8T      HAL2     0.900000E-01   1.00800           0
     19186 MEMB     166      OSM      C9S      CTL2    -0.180000       12.0110           0
     19187 MEMB     166      OSM      H9S      HAL2     0.900000E-01   1.00800           0
     19188 MEMB     166      OSM      H9T      HAL2     0.900000E-01   1.00800           0
     19189 MEMB     166      OSM      C10S     CTL2    -0.180000       12.0110           0
     19190 MEMB     166      OSM      H10S     HAL2     0.900000E-01   1.00800           0
     19191 MEMB     166      OSM      H10T     HAL2     0.900000E-01   1.00800           0
     19192 MEMB     166      OSM      C11S     CTL2    -0.180000       12.0110           0
     19193 MEMB     166      OSM      H11S     HAL2     0.900000E-01   1.00800           0
     19194 MEMB     166      OSM      H11T     HAL2     0.900000E-01   1.00800           0
     19195 MEMB     166      OSM      C12S     CTL2    -0.180000       12.0110           0
     19196 MEMB     166      OSM      H12S     HAL2     0.900000E-01   1.00800           0
     19197 MEMB     166      OSM      H12T     HAL2     0.900000E-01   1.00800           0
     19198 MEMB     166      OSM      C13S     CTL2    -0.180000       12.0110           0
     19199 MEMB     166      OSM      H13S     HAL2     0.900000E-01   1.00800           0
     19200 MEMB     166      OSM      H13T     HAL2     0.900000E-01   1.00800           0
     19201 MEMB     166      OSM      C14S     CTL2    -0.180000       12.0110           0
     19202 MEMB     166      OSM      H14S     HAL2     0.900000E-01   1.00800           0
     19203 MEMB     166      OSM      H14T     HAL2     0.900000E-01   1.00800           0
     19204 MEMB     166      OSM      C15S     CTL2    -0.180000       12.0110           0
     19205 MEMB     166      OSM      H15S     HAL2     0.900000E-01   1.00800           0
     19206 MEMB     166      OSM      H15T     HAL2     0.900000E-01   1.00800           0
     19207 MEMB     166      OSM      C16S     CTL2    -0.180000       12.0110           0
     19208 MEMB     166      OSM      H16S     HAL2     0.900000E-01   1.00800           0
     19209 MEMB     166      OSM      H16T     HAL2     0.900000E-01   1.00800           0
     19210 MEMB     166      OSM      C17S     CTL2    -0.180000       12.0110           0
     19211 MEMB     166      OSM      H17S     HAL2     0.900000E-01   1.00800           0
     19212 MEMB     166      OSM      H17T     HAL2     0.900000E-01   1.00800           0
     19213 MEMB     166      OSM      C18S     CTL3    -0.270000       12.0110           0
     19214 MEMB     166      OSM      H18S     HAL3     0.900000E-01   1.00800           0
     19215 MEMB     166      OSM      H18T     HAL3     0.900000E-01   1.00800           0
     19216 MEMB     166      OSM      H18U     HAL3     0.900000E-01   1.00800           0
     19217 MEMB     166      OSM      C1F      C        0.550000       12.0110           0
     19218 MEMB     166      OSM      OF       O       -0.600000       15.9994           0
     19219 MEMB     166      OSM      C2F      CTL2    -0.700000E-01   12.0110           0
     19220 MEMB     166      OSM      H2F      HAL2     0.600000E-01   1.00800           0
     19221 MEMB     166      OSM      H2G      HAL2     0.600000E-01   1.00800           0
     19222 MEMB     166      OSM      C3F      CTL2    -0.180000       12.0110           0
     19223 MEMB     166      OSM      H3F      HAL2     0.900000E-01   1.00800           0
     19224 MEMB     166      OSM      H3G      HAL2     0.900000E-01   1.00800           0
     19225 MEMB     166      OSM      C4F      CTL2    -0.180000       12.0110           0
     19226 MEMB     166      OSM      H4F      HAL2     0.900000E-01   1.00800           0
     19227 MEMB     166      OSM      H4G      HAL2     0.900000E-01   1.00800           0
     19228 MEMB     166      OSM      C5F      CTL2    -0.180000       12.0110           0
     19229 MEMB     166      OSM      H5F      HAL2     0.900000E-01   1.00800           0
     19230 MEMB     166      OSM      H5G      HAL2     0.900000E-01   1.00800           0
     19231 MEMB     166      OSM      C6F      CTL2    -0.180000       12.0110           0
     19232 MEMB     166      OSM      H6F      HAL2     0.900000E-01   1.00800           0
     19233 MEMB     166      OSM      H6G      HAL2     0.900000E-01   1.00800           0
     19234 MEMB     166      OSM      C7F      CTL2    -0.180000       12.0110           0
     19235 MEMB     166      OSM      H7F      HAL2     0.900000E-01   1.00800           0
     19236 MEMB     166      OSM      H7G      HAL2     0.900000E-01   1.00800           0
     19237 MEMB     166      OSM      C8F      CTL2    -0.180000       12.0110           0
     19238 MEMB     166      OSM      H8F      HAL2     0.900000E-01   1.00800           0
     19239 MEMB     166      OSM      H8G      HAL2     0.900000E-01   1.00800           0
     19240 MEMB     166      OSM      C9F      CEL1    -0.150000       12.0110           0
     19241 MEMB     166      OSM      H9F      HEL1     0.150000       1.00800           0
     19242 MEMB     166      OSM      C10F     CEL1    -0.150000       12.0110           0
     19243 MEMB     166      OSM      H10F     HEL1     0.150000       1.00800           0
     19244 MEMB     166      OSM      C11F     CTL2    -0.180000       12.0110           0
     19245 MEMB     166      OSM      H11F     HAL2     0.900000E-01   1.00800           0
     19246 MEMB     166      OSM      H11G     HAL2     0.900000E-01   1.00800           0
     19247 MEMB     166      OSM      C12F     CTL2    -0.180000       12.0110           0
     19248 MEMB     166      OSM      H12F     HAL2     0.900000E-01   1.00800           0
     19249 MEMB     166      OSM      H12G     HAL2     0.900000E-01   1.00800           0
     19250 MEMB     166      OSM      C13F     CTL2    -0.180000       12.0110           0
     19251 MEMB     166      OSM      H13F     HAL2     0.900000E-01   1.00800           0
     19252 MEMB     166      OSM      H13G     HAL2     0.900000E-01   1.00800           0
     19253 MEMB     166      OSM      C14F     CTL2    -0.180000       12.0110           0
     19254 MEMB     166      OSM      H14F     HAL2     0.900000E-01   1.00800           0
     19255 MEMB     166      OSM      H14G     HAL2     0.900000E-01   1.00800           0
     19256 MEMB     166      OSM      C15F     CTL2    -0.180000       12.0110           0
     19257 MEMB     166      OSM      H15F     HAL2     0.900000E-01   1.00800           0
     19258 MEMB     166      OSM      H15G     HAL2     0.900000E-01   1.00800           0
     19259 MEMB     166      OSM      C16F     CTL2    -0.180000       12.0110           0
     19260 MEMB     166      OSM      H16F     HAL2     0.900000E-01   1.00800           0
     19261 MEMB     166      OSM      H16G     HAL2     0.900000E-01   1.00800           0
     19262 MEMB     166      OSM      C17F     CTL2    -0.180000       12.0110           0
     19263 MEMB     166      OSM      H17F     HAL2     0.900000E-01   1.00800           0
     19264 MEMB     166      OSM      H17G     HAL2     0.900000E-01   1.00800           0
     19265 MEMB     166      OSM      C18F     CTL3    -0.270000       12.0110           0
     19266 MEMB     166      OSM      H18F     HAL3     0.900000E-01   1.00800           0
     19267 MEMB     166      OSM      H18G     HAL3     0.900000E-01   1.00800           0
     19268 MEMB     166      OSM      H18H     HAL3     0.900000E-01   1.00800           0
     19269 MEMB     167      CHL1     C3       CRL1     0.140000       12.0110           0
     19270 MEMB     167      CHL1     H3       HGA1     0.900000E-01   1.00800           0
     19271 MEMB     167      CHL1     O3       OHL     -0.660000       15.9994           0
     19272 MEMB     167      CHL1     H3'      HOL      0.430000       1.00800           0
     19273 MEMB     167      CHL1     C4       CRL2    -0.180000       12.0110           0
     19274 MEMB     167      CHL1     H4A      HGA2     0.900000E-01   1.00800           0
     19275 MEMB     167      CHL1     H4B      HGA2     0.900000E-01   1.00800           0
     19276 MEMB     167      CHL1     C5       CEL1      0.00000       12.0110           0
     19277 MEMB     167      CHL1     C6       CEL1    -0.150000       12.0110           0
     19278 MEMB     167      CHL1     H6       HEL1     0.150000       1.00800           0
     19279 MEMB     167      CHL1     C7       CRL2    -0.180000       12.0110           0
     19280 MEMB     167      CHL1     H7A      HGA2     0.900000E-01   1.00800           0
     19281 MEMB     167      CHL1     H7B      HGA2     0.900000E-01   1.00800           0
     19282 MEMB     167      CHL1     C8       CRL1    -0.900000E-01   12.0110           0
     19283 MEMB     167      CHL1     H8       HGA1     0.900000E-01   1.00800           0
     19284 MEMB     167      CHL1     C14      CRL1    -0.900000E-01   12.0110           0
     19285 MEMB     167      CHL1     H14      HGA1     0.900000E-01   1.00800           0
     19286 MEMB     167      CHL1     C15      CRL2    -0.180000       12.0110           0
     19287 MEMB     167      CHL1     H15A     HGA2     0.900000E-01   1.00800           0
     19288 MEMB     167      CHL1     H15B     HGA2     0.900000E-01   1.00800           0
     19289 MEMB     167      CHL1     C16      CRL2    -0.180000       12.0110           0
     19290 MEMB     167      CHL1     H16A     HGA2     0.900000E-01   1.00800           0
     19291 MEMB     167      CHL1     H16B     HGA2     0.900000E-01   1.00800           0
     19292 MEMB     167      CHL1     C17      CRL1    -0.900000E-01   12.0110           0
     19293 MEMB     167      CHL1     H17      HGA1     0.900000E-01   1.00800           0
     19294 MEMB     167      CHL1     C13      CRL1      0.00000       12.0110           0
     19295 MEMB     167      CHL1     C18      CTL3    -0.270000       12.0110           0
     19296 MEMB     167      CHL1     H18A     HAL3     0.900000E-01   1.00800           0
     19297 MEMB     167      CHL1     H18B     HAL3     0.900000E-01   1.00800           0
     19298 MEMB     167      CHL1     H18C     HAL3     0.900000E-01   1.00800           0
     19299 MEMB     167      CHL1     C12      CRL2    -0.180000       12.0110           0
     19300 MEMB     167      CHL1     H12A     HGA2     0.900000E-01   1.00800           0
     19301 MEMB     167      CHL1     H12B     HGA2     0.900000E-01   1.00800           0
     19302 MEMB     167      CHL1     C11      CRL2    -0.180000       12.0110           0
     19303 MEMB     167      CHL1     H11A     HGA2     0.900000E-01   1.00800           0
     19304 MEMB     167      CHL1     H11B     HGA2     0.900000E-01   1.00800           0
     19305 MEMB     167      CHL1     C9       CRL1    -0.900000E-01   12.0110           0
     19306 MEMB     167      CHL1     H9       HGA1     0.900000E-01   1.00800           0
     19307 MEMB     167      CHL1     C10      CRL1      0.00000       12.0110           0
     19308 MEMB     167      CHL1     C19      CTL3    -0.270000       12.0110           0
     19309 MEMB     167      CHL1     H19A     HAL3     0.900000E-01   1.00800           0
     19310 MEMB     167      CHL1     H19B     HAL3     0.900000E-01   1.00800           0
     19311 MEMB     167      CHL1     H19C     HAL3     0.900000E-01   1.00800           0
     19312 MEMB     167      CHL1     C1       CRL2    -0.180000       12.0110           0
     19313 MEMB     167      CHL1     H1A      HGA2     0.900000E-01   1.00800           0
     19314 MEMB     167      CHL1     H1B      HGA2     0.900000E-01   1.00800           0
     19315 MEMB     167      CHL1     C2       CRL2    -0.180000       12.0110           0
     19316 MEMB     167      CHL1     H2A      HGA2     0.900000E-01   1.00800           0
     19317 MEMB     167      CHL1     H2B      HGA2     0.900000E-01   1.00800           0
     19318 MEMB     167      CHL1     C20      CTL1    -0.900000E-01   12.0110           0
     19319 MEMB     167      CHL1     H20      HAL1     0.900000E-01   1.00800           0
     19320 MEMB     167      CHL1     C21      CTL3    -0.270000       12.0110           0
     19321 MEMB     167      CHL1     H21A     HAL3     0.900000E-01   1.00800           0
     19322 MEMB     167      CHL1     H21B     HAL3     0.900000E-01   1.00800           0
     19323 MEMB     167      CHL1     H21C     HAL3     0.900000E-01   1.00800           0
     19324 MEMB     167      CHL1     C22      CTL2    -0.180000       12.0110           0
     19325 MEMB     167      CHL1     H22A     HAL2     0.900000E-01   1.00800           0
     19326 MEMB     167      CHL1     H22B     HAL2     0.900000E-01   1.00800           0
     19327 MEMB     167      CHL1     C23      CTL2    -0.180000       12.0110           0
     19328 MEMB     167      CHL1     H23A     HAL2     0.900000E-01   1.00800           0
     19329 MEMB     167      CHL1     H23B     HAL2     0.900000E-01   1.00800           0
     19330 MEMB     167      CHL1     C24      CTL2    -0.180000       12.0110           0
     19331 MEMB     167      CHL1     H24A     HAL2     0.900000E-01   1.00800           0
     19332 MEMB     167      CHL1     H24B     HAL2     0.900000E-01   1.00800           0
     19333 MEMB     167      CHL1     C25      CTL1    -0.900000E-01   12.0110           0
     19334 MEMB     167      CHL1     H25      HAL1     0.900000E-01   1.00800           0
     19335 MEMB     167      CHL1     C26      CTL3    -0.270000       12.0110           0
     19336 MEMB     167      CHL1     H26A     HAL3     0.900000E-01   1.00800           0
     19337 MEMB     167      CHL1     H26B     HAL3     0.900000E-01   1.00800           0
     19338 MEMB     167      CHL1     H26C     HAL3     0.900000E-01   1.00800           0
     19339 MEMB     167      CHL1     C27      CTL3    -0.270000       12.0110           0
     19340 MEMB     167      CHL1     H27A     HAL3     0.900000E-01   1.00800           0
     19341 MEMB     167      CHL1     H27B     HAL3     0.900000E-01   1.00800           0
     19342 MEMB     167      CHL1     H27C     HAL3     0.900000E-01   1.00800           0
     19343 MEMB     168      SAPE     N        NH3L    -0.300000       14.0070           0
     19344 MEMB     168      SAPE     HN1      HCL      0.330000       1.00800           0
     19345 MEMB     168      SAPE     HN2      HCL      0.330000       1.00800           0
     19346 MEMB     168      SAPE     HN3      HCL      0.330000       1.00800           0
     19347 MEMB     168      SAPE     C12      CTL2     0.130000       12.0110           0
     19348 MEMB     168      SAPE     H12A     HAL2     0.900000E-01   1.00800           0
     19349 MEMB     168      SAPE     H12B     HAL2     0.900000E-01   1.00800           0
     19350 MEMB     168      SAPE     C11      CTL2    -0.800000E-01   12.0110           0
     19351 MEMB     168      SAPE     H11A     HAL2     0.900000E-01   1.00800           0
     19352 MEMB     168      SAPE     H11B     HAL2     0.900000E-01   1.00800           0
     19353 MEMB     168      SAPE     P        PL        1.50000       30.9740           0
     19354 MEMB     168      SAPE     O13      O2L     -0.780000       15.9994           0
     19355 MEMB     168      SAPE     O14      O2L     -0.780000       15.9994           0
     19356 MEMB     168      SAPE     O12      OSLP    -0.570000       15.9994           0
     19357 MEMB     168      SAPE     O11      OSLP    -0.570000       15.9994           0
     19358 MEMB     168      SAPE     C1       CTL2    -0.800000E-01   12.0110           0
     19359 MEMB     168      SAPE     HA       HAL2     0.900000E-01   1.00800           0
     19360 MEMB     168      SAPE     HB       HAL2     0.900000E-01   1.00800           0
     19361 MEMB     168      SAPE     C2       CTL1     0.170000       12.0110           0
     19362 MEMB     168      SAPE     HS       HAL1     0.900000E-01   1.00800           0
     19363 MEMB     168      SAPE     O21      OSL     -0.490000       15.9994           0
     19364 MEMB     168      SAPE     C21      CL       0.900000       12.0110           0
     19365 MEMB     168      SAPE     O22      OBL     -0.630000       15.9994           0
     19366 MEMB     168      SAPE     C22      CTL2    -0.220000       12.0110           0
     19367 MEMB     168      SAPE     H2R      HAL2     0.900000E-01   1.00800           0
     19368 MEMB     168      SAPE     H2S      HAL2     0.900000E-01   1.00800           0
     19369 MEMB     168      SAPE     C3       CTL2     0.800000E-01   12.0110           0
     19370 MEMB     168      SAPE     HX       HAL2     0.900000E-01   1.00800           0
     19371 MEMB     168      SAPE     HY       HAL2     0.900000E-01   1.00800           0
     19372 MEMB     168      SAPE     O31      OSL     -0.490000       15.9994           0
     19373 MEMB     168      SAPE     C31      CL       0.900000       12.0110           0
     19374 MEMB     168      SAPE     O32      OBL     -0.630000       15.9994           0
     19375 MEMB     168      SAPE     C32      CTL2    -0.220000       12.0110           0
     19376 MEMB     168      SAPE     H2X      HAL2     0.900000E-01   1.00800           0
     19377 MEMB     168      SAPE     H2Y      HAL2     0.900000E-01   1.00800           0
     19378 MEMB     168      SAPE     C23      CTL2    -0.180000       12.0110           0
     19379 MEMB     168      SAPE     H3R      HAL2     0.900000E-01   1.00800           0
     19380 MEMB     168      SAPE     H3S      HAL2     0.900000E-01   1.00800           0
     19381 MEMB     168      SAPE     C24      CTL2    -0.180000       12.0110           0
     19382 MEMB     168      SAPE     H4R      HAL2     0.900000E-01   1.00800           0
     19383 MEMB     168      SAPE     H4S      HAL2     0.900000E-01   1.00800           0
     19384 MEMB     168      SAPE     C25      CEL1    -0.150000       12.0110           0
     19385 MEMB     168      SAPE     H5R      HEL1     0.150000       1.00800           0
     19386 MEMB     168      SAPE     C26      CEL1    -0.150000       12.0110           0
     19387 MEMB     168      SAPE     H6R      HEL1     0.150000       1.00800           0
     19388 MEMB     168      SAPE     C27      CTL2    -0.180000       12.0110           0
     19389 MEMB     168      SAPE     H7R      HAL2     0.900000E-01   1.00800           0
     19390 MEMB     168      SAPE     H7S      HAL2     0.900000E-01   1.00800           0
     19391 MEMB     168      SAPE     C28      CEL1    -0.150000       12.0110           0
     19392 MEMB     168      SAPE     H8R      HEL1     0.150000       1.00800           0
     19393 MEMB     168      SAPE     C29      CEL1    -0.150000       12.0110           0
     19394 MEMB     168      SAPE     H9R      HEL1     0.150000       1.00800           0
     19395 MEMB     168      SAPE     C210     CTL2    -0.180000       12.0110           0
     19396 MEMB     168      SAPE     H10R     HAL2     0.900000E-01   1.00800           0
     19397 MEMB     168      SAPE     H10S     HAL2     0.900000E-01   1.00800           0
     19398 MEMB     168      SAPE     C211     CEL1    -0.150000       12.0110           0
     19399 MEMB     168      SAPE     H11R     HEL1     0.150000       1.00800           0
     19400 MEMB     168      SAPE     C212     CEL1    -0.150000       12.0110           0
     19401 MEMB     168      SAPE     H12R     HEL1     0.150000       1.00800           0
     19402 MEMB     168      SAPE     C213     CTL2    -0.180000       12.0110           0
     19403 MEMB     168      SAPE     H13R     HAL2     0.900000E-01   1.00800           0
     19404 MEMB     168      SAPE     H13S     HAL2     0.900000E-01   1.00800           0
     19405 MEMB     168      SAPE     C214     CEL1    -0.150000       12.0110           0
     19406 MEMB     168      SAPE     H14R     HEL1     0.150000       1.00800           0
     19407 MEMB     168      SAPE     C215     CEL1    -0.150000       12.0110           0
     19408 MEMB     168      SAPE     H15R     HEL1     0.150000       1.00800           0
     19409 MEMB     168      SAPE     C216     CTL2    -0.180000       12.0110           0
     19410 MEMB     168      SAPE     H16R     HAL2     0.900000E-01   1.00800           0
     19411 MEMB     168      SAPE     H16S     HAL2     0.900000E-01   1.00800           0
     19412 MEMB     168      SAPE     C217     CTL2    -0.180000       12.0110           0
     19413 MEMB     168      SAPE     H17R     HAL2     0.900000E-01   1.00800           0
     19414 MEMB     168      SAPE     H17S     HAL2     0.900000E-01   1.00800           0
     19415 MEMB     168      SAPE     C218     CTL2    -0.180000       12.0110           0
     19416 MEMB     168      SAPE     H18R     HAL2     0.900000E-01   1.00800           0
     19417 MEMB     168      SAPE     H18S     HAL2     0.900000E-01   1.00800           0
     19418 MEMB     168      SAPE     C219     CTL2    -0.180000       12.0110           0
     19419 MEMB     168      SAPE     H19R     HAL2     0.900000E-01   1.00800           0
     19420 MEMB     168      SAPE     H19S     HAL2     0.900000E-01   1.00800           0
     19421 MEMB     168      SAPE     C220     CTL3    -0.270000       12.0110           0
     19422 MEMB     168      SAPE     H20R     HAL3     0.900000E-01   1.00800           0
     19423 MEMB     168      SAPE     H20S     HAL3     0.900000E-01   1.00800           0
     19424 MEMB     168      SAPE     H20T     HAL3     0.900000E-01   1.00800           0
     19425 MEMB     168      SAPE     C33      CTL2    -0.180000       12.0110           0
     19426 MEMB     168      SAPE     H3X      HAL2     0.900000E-01   1.00800           0
     19427 MEMB     168      SAPE     H3Y      HAL2     0.900000E-01   1.00800           0
     19428 MEMB     168      SAPE     C34      CTL2    -0.180000       12.0110           0
     19429 MEMB     168      SAPE     H4X      HAL2     0.900000E-01   1.00800           0
     19430 MEMB     168      SAPE     H4Y      HAL2     0.900000E-01   1.00800           0
     19431 MEMB     168      SAPE     C35      CTL2    -0.180000       12.0110           0
     19432 MEMB     168      SAPE     H5X      HAL2     0.900000E-01   1.00800           0
     19433 MEMB     168      SAPE     H5Y      HAL2     0.900000E-01   1.00800           0
     19434 MEMB     168      SAPE     C36      CTL2    -0.180000       12.0110           0
     19435 MEMB     168      SAPE     H6X      HAL2     0.900000E-01   1.00800           0
     19436 MEMB     168      SAPE     H6Y      HAL2     0.900000E-01   1.00800           0
     19437 MEMB     168      SAPE     C37      CTL2    -0.180000       12.0110           0
     19438 MEMB     168      SAPE     H7X      HAL2     0.900000E-01   1.00800           0
     19439 MEMB     168      SAPE     H7Y      HAL2     0.900000E-01   1.00800           0
     19440 MEMB     168      SAPE     C38      CTL2    -0.180000       12.0110           0
     19441 MEMB     168      SAPE     H8X      HAL2     0.900000E-01   1.00800           0
     19442 MEMB     168      SAPE     H8Y      HAL2     0.900000E-01   1.00800           0
     19443 MEMB     168      SAPE     C39      CTL2    -0.180000       12.0110           0
     19444 MEMB     168      SAPE     H9X      HAL2     0.900000E-01   1.00800           0
     19445 MEMB     168      SAPE     H9Y      HAL2     0.900000E-01   1.00800           0
     19446 MEMB     168      SAPE     C310     CTL2    -0.180000       12.0110           0
     19447 MEMB     168      SAPE     H10X     HAL2     0.900000E-01   1.00800           0
     19448 MEMB     168      SAPE     H10Y     HAL2     0.900000E-01   1.00800           0
     19449 MEMB     168      SAPE     C311     CTL2    -0.180000       12.0110           0
     19450 MEMB     168      SAPE     H11X     HAL2     0.900000E-01   1.00800           0
     19451 MEMB     168      SAPE     H11Y     HAL2     0.900000E-01   1.00800           0
     19452 MEMB     168      SAPE     C312     CTL2    -0.180000       12.0110           0
     19453 MEMB     168      SAPE     H12X     HAL2     0.900000E-01   1.00800           0
     19454 MEMB     168      SAPE     H12Y     HAL2     0.900000E-01   1.00800           0
     19455 MEMB     168      SAPE     C313     CTL2    -0.180000       12.0110           0
     19456 MEMB     168      SAPE     H13X     HAL2     0.900000E-01   1.00800           0
     19457 MEMB     168      SAPE     H13Y     HAL2     0.900000E-01   1.00800           0
     19458 MEMB     168      SAPE     C314     CTL2    -0.180000       12.0110           0
     19459 MEMB     168      SAPE     H14X     HAL2     0.900000E-01   1.00800           0
     19460 MEMB     168      SAPE     H14Y     HAL2     0.900000E-01   1.00800           0
     19461 MEMB     168      SAPE     C315     CTL2    -0.180000       12.0110           0
     19462 MEMB     168      SAPE     H15X     HAL2     0.900000E-01   1.00800           0
     19463 MEMB     168      SAPE     H15Y     HAL2     0.900000E-01   1.00800           0
     19464 MEMB     168      SAPE     C316     CTL2    -0.180000       12.0110           0
     19465 MEMB     168      SAPE     H16X     HAL2     0.900000E-01   1.00800           0
     19466 MEMB     168      SAPE     H16Y     HAL2     0.900000E-01   1.00800           0
     19467 MEMB     168      SAPE     C317     CTL2    -0.180000       12.0110           0
     19468 MEMB     168      SAPE     H17X     HAL2     0.900000E-01   1.00800           0
     19469 MEMB     168      SAPE     H17Y     HAL2     0.900000E-01   1.00800           0
     19470 MEMB     168      SAPE     C318     CTL3    -0.270000       12.0110           0
     19471 MEMB     168      SAPE     H18X     HAL3     0.900000E-01   1.00800           0
     19472 MEMB     168      SAPE     H18Y     HAL3     0.900000E-01   1.00800           0
     19473 MEMB     168      SAPE     H18Z     HAL3     0.900000E-01   1.00800           0
     19474 MEMB     169      SOPE     N        NH3L    -0.300000       14.0070           0
     19475 MEMB     169      SOPE     HN1      HCL      0.330000       1.00800           0
     19476 MEMB     169      SOPE     HN2      HCL      0.330000       1.00800           0
     19477 MEMB     169      SOPE     HN3      HCL      0.330000       1.00800           0
     19478 MEMB     169      SOPE     C12      CTL2     0.130000       12.0110           0
     19479 MEMB     169      SOPE     H12A     HAL2     0.900000E-01   1.00800           0
     19480 MEMB     169      SOPE     H12B     HAL2     0.900000E-01   1.00800           0
     19481 MEMB     169      SOPE     C11      CTL2    -0.800000E-01   12.0110           0
     19482 MEMB     169      SOPE     H11A     HAL2     0.900000E-01   1.00800           0
     19483 MEMB     169      SOPE     H11B     HAL2     0.900000E-01   1.00800           0
     19484 MEMB     169      SOPE     P        PL        1.50000       30.9740           0
     19485 MEMB     169      SOPE     O13      O2L     -0.780000       15.9994           0
     19486 MEMB     169      SOPE     O14      O2L     -0.780000       15.9994           0
     19487 MEMB     169      SOPE     O12      OSLP    -0.570000       15.9994           0
     19488 MEMB     169      SOPE     O11      OSLP    -0.570000       15.9994           0
     19489 MEMB     169      SOPE     C1       CTL2    -0.800000E-01   12.0110           0
     19490 MEMB     169      SOPE     HA       HAL2     0.900000E-01   1.00800           0
     19491 MEMB     169      SOPE     HB       HAL2     0.900000E-01   1.00800           0
     19492 MEMB     169      SOPE     C2       CTL1     0.170000       12.0110           0
     19493 MEMB     169      SOPE     HS       HAL1     0.900000E-01   1.00800           0
     19494 MEMB     169      SOPE     O21      OSL     -0.490000       15.9994           0
     19495 MEMB     169      SOPE     C21      CL       0.900000       12.0110           0
     19496 MEMB     169      SOPE     O22      OBL     -0.630000       15.9994           0
     19497 MEMB     169      SOPE     C22      CTL2    -0.220000       12.0110           0
     19498 MEMB     169      SOPE     H2R      HAL2     0.900000E-01   1.00800           0
     19499 MEMB     169      SOPE     H2S      HAL2     0.900000E-01   1.00800           0
     19500 MEMB     169      SOPE     C3       CTL2     0.800000E-01   12.0110           0
     19501 MEMB     169      SOPE     HX       HAL2     0.900000E-01   1.00800           0
     19502 MEMB     169      SOPE     HY       HAL2     0.900000E-01   1.00800           0
     19503 MEMB     169      SOPE     O31      OSL     -0.490000       15.9994           0
     19504 MEMB     169      SOPE     C31      CL       0.900000       12.0110           0
     19505 MEMB     169      SOPE     O32      OBL     -0.630000       15.9994           0
     19506 MEMB     169      SOPE     C32      CTL2    -0.220000       12.0110           0
     19507 MEMB     169      SOPE     H2X      HAL2     0.900000E-01   1.00800           0
     19508 MEMB     169      SOPE     H2Y      HAL2     0.900000E-01   1.00800           0
     19509 MEMB     169      SOPE     C23      CTL2    -0.180000       12.0110           0
     19510 MEMB     169      SOPE     H3R      HAL2     0.900000E-01   1.00800           0
     19511 MEMB     169      SOPE     H3S      HAL2     0.900000E-01   1.00800           0
     19512 MEMB     169      SOPE     C24      CTL2    -0.180000       12.0110           0
     19513 MEMB     169      SOPE     H4R      HAL2     0.900000E-01   1.00800           0
     19514 MEMB     169      SOPE     H4S      HAL2     0.900000E-01   1.00800           0
     19515 MEMB     169      SOPE     C25      CTL2    -0.180000       12.0110           0
     19516 MEMB     169      SOPE     H5R      HAL2     0.900000E-01   1.00800           0
     19517 MEMB     169      SOPE     H5S      HAL2     0.900000E-01   1.00800           0
     19518 MEMB     169      SOPE     C26      CTL2    -0.180000       12.0110           0
     19519 MEMB     169      SOPE     H6R      HAL2     0.900000E-01   1.00800           0
     19520 MEMB     169      SOPE     H6S      HAL2     0.900000E-01   1.00800           0
     19521 MEMB     169      SOPE     C27      CTL2    -0.180000       12.0110           0
     19522 MEMB     169      SOPE     H7R      HAL2     0.900000E-01   1.00800           0
     19523 MEMB     169      SOPE     H7S      HAL2     0.900000E-01   1.00800           0
     19524 MEMB     169      SOPE     C28      CTL2    -0.180000       12.0110           0
     19525 MEMB     169      SOPE     H8R      HAL2     0.900000E-01   1.00800           0
     19526 MEMB     169      SOPE     H8S      HAL2     0.900000E-01   1.00800           0
     19527 MEMB     169      SOPE     C29      CEL1    -0.150000       12.0110           0
     19528 MEMB     169      SOPE     H91      HEL1     0.150000       1.00800           0
     19529 MEMB     169      SOPE     C210     CEL1    -0.150000       12.0110           0
     19530 MEMB     169      SOPE     H101     HEL1     0.150000       1.00800           0
     19531 MEMB     169      SOPE     C211     CTL2    -0.180000       12.0110           0
     19532 MEMB     169      SOPE     H11R     HAL2     0.900000E-01   1.00800           0
     19533 MEMB     169      SOPE     H11S     HAL2     0.900000E-01   1.00800           0
     19534 MEMB     169      SOPE     C212     CTL2    -0.180000       12.0110           0
     19535 MEMB     169      SOPE     H12R     HAL2     0.900000E-01   1.00800           0
     19536 MEMB     169      SOPE     H12S     HAL2     0.900000E-01   1.00800           0
     19537 MEMB     169      SOPE     C213     CTL2    -0.180000       12.0110           0
     19538 MEMB     169      SOPE     H13R     HAL2     0.900000E-01   1.00800           0
     19539 MEMB     169      SOPE     H13S     HAL2     0.900000E-01   1.00800           0
     19540 MEMB     169      SOPE     C214     CTL2    -0.180000       12.0110           0
     19541 MEMB     169      SOPE     H14R     HAL2     0.900000E-01   1.00800           0
     19542 MEMB     169      SOPE     H14S     HAL2     0.900000E-01   1.00800           0
     19543 MEMB     169      SOPE     C215     CTL2    -0.180000       12.0110           0
     19544 MEMB     169      SOPE     H15R     HAL2     0.900000E-01   1.00800           0
     19545 MEMB     169      SOPE     H15S     HAL2     0.900000E-01   1.00800           0
     19546 MEMB     169      SOPE     C216     CTL2    -0.180000       12.0110           0
     19547 MEMB     169      SOPE     H16R     HAL2     0.900000E-01   1.00800           0
     19548 MEMB     169      SOPE     H16S     HAL2     0.900000E-01   1.00800           0
     19549 MEMB     169      SOPE     C217     CTL2    -0.180000       12.0110           0
     19550 MEMB     169      SOPE     H17R     HAL2     0.900000E-01   1.00800           0
     19551 MEMB     169      SOPE     H17S     HAL2     0.900000E-01   1.00800           0
     19552 MEMB     169      SOPE     C218     CTL3    -0.270000       12.0110           0
     19553 MEMB     169      SOPE     H18R     HAL3     0.900000E-01   1.00800           0
     19554 MEMB     169      SOPE     H18S     HAL3     0.900000E-01   1.00800           0
     19555 MEMB     169      SOPE     H18T     HAL3     0.900000E-01   1.00800           0
     19556 MEMB     169      SOPE     C33      CTL2    -0.180000       12.0110           0
     19557 MEMB     169      SOPE     H3X      HAL2     0.900000E-01   1.00800           0
     19558 MEMB     169      SOPE     H3Y      HAL2     0.900000E-01   1.00800           0
     19559 MEMB     169      SOPE     C34      CTL2    -0.180000       12.0110           0
     19560 MEMB     169      SOPE     H4X      HAL2     0.900000E-01   1.00800           0
     19561 MEMB     169      SOPE     H4Y      HAL2     0.900000E-01   1.00800           0
     19562 MEMB     169      SOPE     C35      CTL2    -0.180000       12.0110           0
     19563 MEMB     169      SOPE     H5X      HAL2     0.900000E-01   1.00800           0
     19564 MEMB     169      SOPE     H5Y      HAL2     0.900000E-01   1.00800           0
     19565 MEMB     169      SOPE     C36      CTL2    -0.180000       12.0110           0
     19566 MEMB     169      SOPE     H6X      HAL2     0.900000E-01   1.00800           0
     19567 MEMB     169      SOPE     H6Y      HAL2     0.900000E-01   1.00800           0
     19568 MEMB     169      SOPE     C37      CTL2    -0.180000       12.0110           0
     19569 MEMB     169      SOPE     H7X      HAL2     0.900000E-01   1.00800           0
     19570 MEMB     169      SOPE     H7Y      HAL2     0.900000E-01   1.00800           0
     19571 MEMB     169      SOPE     C38      CTL2    -0.180000       12.0110           0
     19572 MEMB     169      SOPE     H8X      HAL2     0.900000E-01   1.00800           0
     19573 MEMB     169      SOPE     H8Y      HAL2     0.900000E-01   1.00800           0
     19574 MEMB     169      SOPE     C39      CTL2    -0.180000       12.0110           0
     19575 MEMB     169      SOPE     H9X      HAL2     0.900000E-01   1.00800           0
     19576 MEMB     169      SOPE     H9Y      HAL2     0.900000E-01   1.00800           0
     19577 MEMB     169      SOPE     C310     CTL2    -0.180000       12.0110           0
     19578 MEMB     169      SOPE     H10X     HAL2     0.900000E-01   1.00800           0
     19579 MEMB     169      SOPE     H10Y     HAL2     0.900000E-01   1.00800           0
     19580 MEMB     169      SOPE     C311     CTL2    -0.180000       12.0110           0
     19581 MEMB     169      SOPE     H11X     HAL2     0.900000E-01   1.00800           0
     19582 MEMB     169      SOPE     H11Y     HAL2     0.900000E-01   1.00800           0
     19583 MEMB     169      SOPE     C312     CTL2    -0.180000       12.0110           0
     19584 MEMB     169      SOPE     H12X     HAL2     0.900000E-01   1.00800           0
     19585 MEMB     169      SOPE     H12Y     HAL2     0.900000E-01   1.00800           0
     19586 MEMB     169      SOPE     C313     CTL2    -0.180000       12.0110           0
     19587 MEMB     169      SOPE     H13X     HAL2     0.900000E-01   1.00800           0
     19588 MEMB     169      SOPE     H13Y     HAL2     0.900000E-01   1.00800           0
     19589 MEMB     169      SOPE     C314     CTL2    -0.180000       12.0110           0
     19590 MEMB     169      SOPE     H14X     HAL2     0.900000E-01   1.00800           0
     19591 MEMB     169      SOPE     H14Y     HAL2     0.900000E-01   1.00800           0
     19592 MEMB     169      SOPE     C315     CTL2    -0.180000       12.0110           0
     19593 MEMB     169      SOPE     H15X     HAL2     0.900000E-01   1.00800           0
     19594 MEMB     169      SOPE     H15Y     HAL2     0.900000E-01   1.00800           0
     19595 MEMB     169      SOPE     C316     CTL2    -0.180000       12.0110           0
     19596 MEMB     169      SOPE     H16X     HAL2     0.900000E-01   1.00800           0
     19597 MEMB     169      SOPE     H16Y     HAL2     0.900000E-01   1.00800           0
     19598 MEMB     169      SOPE     C317     CTL2    -0.180000       12.0110           0
     19599 MEMB     169      SOPE     H17X     HAL2     0.900000E-01   1.00800           0
     19600 MEMB     169      SOPE     H17Y     HAL2     0.900000E-01   1.00800           0
     19601 MEMB     169      SOPE     C318     CTL3    -0.270000       12.0110           0
     19602 MEMB     169      SOPE     H18X     HAL3     0.900000E-01   1.00800           0
     19603 MEMB     169      SOPE     H18Y     HAL3     0.900000E-01   1.00800           0
     19604 MEMB     169      SOPE     H18Z     HAL3     0.900000E-01   1.00800           0
     19605 MEMB     170      SLPC     N        NTL     -0.600000       14.0070           0
     19606 MEMB     170      SLPC     C13      CTL5    -0.350000       12.0110           0
     19607 MEMB     170      SLPC     H13A     HL       0.250000       1.00800           0
     19608 MEMB     170      SLPC     H13B     HL       0.250000       1.00800           0
     19609 MEMB     170      SLPC     H13C     HL       0.250000       1.00800           0
     19610 MEMB     170      SLPC     C14      CTL5    -0.350000       12.0110           0
     19611 MEMB     170      SLPC     H14A     HL       0.250000       1.00800           0
     19612 MEMB     170      SLPC     H14B     HL       0.250000       1.00800           0
     19613 MEMB     170      SLPC     H14C     HL       0.250000       1.00800           0
     19614 MEMB     170      SLPC     C15      CTL5    -0.350000       12.0110           0
     19615 MEMB     170      SLPC     H15A     HL       0.250000       1.00800           0
     19616 MEMB     170      SLPC     H15B     HL       0.250000       1.00800           0
     19617 MEMB     170      SLPC     H15C     HL       0.250000       1.00800           0
     19618 MEMB     170      SLPC     C12      CTL2    -0.100000       12.0110           0
     19619 MEMB     170      SLPC     H12A     HL       0.250000       1.00800           0
     19620 MEMB     170      SLPC     H12B     HL       0.250000       1.00800           0
     19621 MEMB     170      SLPC     C11      CTL2    -0.800000E-01   12.0110           0
     19622 MEMB     170      SLPC     H11A     HAL2     0.900000E-01   1.00800           0
     19623 MEMB     170      SLPC     H11B     HAL2     0.900000E-01   1.00800           0
     19624 MEMB     170      SLPC     P        PL        1.50000       30.9740           0
     19625 MEMB     170      SLPC     O13      O2L     -0.780000       15.9994           0
     19626 MEMB     170      SLPC     O14      O2L     -0.780000       15.9994           0
     19627 MEMB     170      SLPC     O12      OSLP    -0.570000       15.9994           0
     19628 MEMB     170      SLPC     O11      OSLP    -0.570000       15.9994           0
     19629 MEMB     170      SLPC     C1       CTL2    -0.800000E-01   12.0110           0
     19630 MEMB     170      SLPC     HA       HAL2     0.900000E-01   1.00800           0
     19631 MEMB     170      SLPC     HB       HAL2     0.900000E-01   1.00800           0
     19632 MEMB     170      SLPC     C2       CTL1     0.170000       12.0110           0
     19633 MEMB     170      SLPC     HS       HAL1     0.900000E-01   1.00800           0
     19634 MEMB     170      SLPC     O21      OSL     -0.490000       15.9994           0
     19635 MEMB     170      SLPC     C21      CL       0.900000       12.0110           0
     19636 MEMB     170      SLPC     O22      OBL     -0.630000       15.9994           0
     19637 MEMB     170      SLPC     C22      CTL2    -0.220000       12.0110           0
     19638 MEMB     170      SLPC     H2R      HAL2     0.900000E-01   1.00800           0
     19639 MEMB     170      SLPC     H2S      HAL2     0.900000E-01   1.00800           0
     19640 MEMB     170      SLPC     C3       CTL2     0.800000E-01   12.0110           0
     19641 MEMB     170      SLPC     HX       HAL2     0.900000E-01   1.00800           0
     19642 MEMB     170      SLPC     HY       HAL2     0.900000E-01   1.00800           0
     19643 MEMB     170      SLPC     O31      OSL     -0.490000       15.9994           0
     19644 MEMB     170      SLPC     C31      CL       0.900000       12.0110           0
     19645 MEMB     170      SLPC     O32      OBL     -0.630000       15.9994           0
     19646 MEMB     170      SLPC     C32      CTL2    -0.220000       12.0110           0
     19647 MEMB     170      SLPC     H2X      HAL2     0.900000E-01   1.00800           0
     19648 MEMB     170      SLPC     H2Y      HAL2     0.900000E-01   1.00800           0
     19649 MEMB     170      SLPC     C23      CTL2    -0.180000       12.0110           0
     19650 MEMB     170      SLPC     H3R      HAL2     0.900000E-01   1.00800           0
     19651 MEMB     170      SLPC     H3S      HAL2     0.900000E-01   1.00800           0
     19652 MEMB     170      SLPC     C24      CTL2    -0.180000       12.0110           0
     19653 MEMB     170      SLPC     H4R      HAL2     0.900000E-01   1.00800           0
     19654 MEMB     170      SLPC     H4S      HAL2     0.900000E-01   1.00800           0
     19655 MEMB     170      SLPC     C25      CTL2    -0.180000       12.0110           0
     19656 MEMB     170      SLPC     H5R      HAL2     0.900000E-01   1.00800           0
     19657 MEMB     170      SLPC     H5S      HAL2     0.900000E-01   1.00800           0
     19658 MEMB     170      SLPC     C26      CTL2    -0.180000       12.0110           0
     19659 MEMB     170      SLPC     H6R      HAL2     0.900000E-01   1.00800           0
     19660 MEMB     170      SLPC     H6S      HAL2     0.900000E-01   1.00800           0
     19661 MEMB     170      SLPC     C27      CTL2    -0.180000       12.0110           0
     19662 MEMB     170      SLPC     H7R      HAL2     0.900000E-01   1.00800           0
     19663 MEMB     170      SLPC     H7S      HAL2     0.900000E-01   1.00800           0
     19664 MEMB     170      SLPC     C28      CTL2    -0.180000       12.0110           0
     19665 MEMB     170      SLPC     H8R      HAL2     0.900000E-01   1.00800           0
     19666 MEMB     170      SLPC     H8S      HAL2     0.900000E-01   1.00800           0
     19667 MEMB     170      SLPC     C29      CEL1    -0.150000       12.0110           0
     19668 MEMB     170      SLPC     H9R      HEL1     0.150000       1.00800           0
     19669 MEMB     170      SLPC     C210     CEL1    -0.150000       12.0110           0
     19670 MEMB     170      SLPC     H10R     HEL1     0.150000       1.00800           0
     19671 MEMB     170      SLPC     C211     CTL2    -0.180000       12.0110           0
     19672 MEMB     170      SLPC     H11R     HAL2     0.900000E-01   1.00800           0
     19673 MEMB     170      SLPC     H11S     HAL2     0.900000E-01   1.00800           0
     19674 MEMB     170      SLPC     C212     CEL1    -0.150000       12.0110           0
     19675 MEMB     170      SLPC     H12R     HEL1     0.150000       1.00800           0
     19676 MEMB     170      SLPC     C213     CEL1    -0.150000       12.0110           0
     19677 MEMB     170      SLPC     H13R     HEL1     0.150000       1.00800           0
     19678 MEMB     170      SLPC     C214     CTL2    -0.180000       12.0110           0
     19679 MEMB     170      SLPC     H14R     HAL2     0.900000E-01   1.00800           0
     19680 MEMB     170      SLPC     H14S     HAL2     0.900000E-01   1.00800           0
     19681 MEMB     170      SLPC     C215     CTL2    -0.180000       12.0110           0
     19682 MEMB     170      SLPC     H15R     HAL2     0.900000E-01   1.00800           0
     19683 MEMB     170      SLPC     H15S     HAL2     0.900000E-01   1.00800           0
     19684 MEMB     170      SLPC     C216     CTL2    -0.180000       12.0110           0
     19685 MEMB     170      SLPC     H16R     HAL2     0.900000E-01   1.00800           0
     19686 MEMB     170      SLPC     H16S     HAL2     0.900000E-01   1.00800           0
     19687 MEMB     170      SLPC     C217     CTL2    -0.180000       12.0110           0
     19688 MEMB     170      SLPC     H17R     HAL2     0.900000E-01   1.00800           0
     19689 MEMB     170      SLPC     H17S     HAL2     0.900000E-01   1.00800           0
     19690 MEMB     170      SLPC     C218     CTL3    -0.270000       12.0110           0
     19691 MEMB     170      SLPC     H18R     HAL3     0.900000E-01   1.00800           0
     19692 MEMB     170      SLPC     H18S     HAL3     0.900000E-01   1.00800           0
     19693 MEMB     170      SLPC     H18T     HAL3     0.900000E-01   1.00800           0
     19694 MEMB     170      SLPC     C33      CTL2    -0.180000       12.0110           0
     19695 MEMB     170      SLPC     H3X      HAL2     0.900000E-01   1.00800           0
     19696 MEMB     170      SLPC     H3Y      HAL2     0.900000E-01   1.00800           0
     19697 MEMB     170      SLPC     C34      CTL2    -0.180000       12.0110           0
     19698 MEMB     170      SLPC     H4X      HAL2     0.900000E-01   1.00800           0
     19699 MEMB     170      SLPC     H4Y      HAL2     0.900000E-01   1.00800           0
     19700 MEMB     170      SLPC     C35      CTL2    -0.180000       12.0110           0
     19701 MEMB     170      SLPC     H5X      HAL2     0.900000E-01   1.00800           0
     19702 MEMB     170      SLPC     H5Y      HAL2     0.900000E-01   1.00800           0
     19703 MEMB     170      SLPC     C36      CTL2    -0.180000       12.0110           0
     19704 MEMB     170      SLPC     H6X      HAL2     0.900000E-01   1.00800           0
     19705 MEMB     170      SLPC     H6Y      HAL2     0.900000E-01   1.00800           0
     19706 MEMB     170      SLPC     C37      CTL2    -0.180000       12.0110           0
     19707 MEMB     170      SLPC     H7X      HAL2     0.900000E-01   1.00800           0
     19708 MEMB     170      SLPC     H7Y      HAL2     0.900000E-01   1.00800           0
     19709 MEMB     170      SLPC     C38      CTL2    -0.180000       12.0110           0
     19710 MEMB     170      SLPC     H8X      HAL2     0.900000E-01   1.00800           0
     19711 MEMB     170      SLPC     H8Y      HAL2     0.900000E-01   1.00800           0
     19712 MEMB     170      SLPC     C39      CTL2    -0.180000       12.0110           0
     19713 MEMB     170      SLPC     H9X      HAL2     0.900000E-01   1.00800           0
     19714 MEMB     170      SLPC     H9Y      HAL2     0.900000E-01   1.00800           0
     19715 MEMB     170      SLPC     C310     CTL2    -0.180000       12.0110           0
     19716 MEMB     170      SLPC     H10X     HAL2     0.900000E-01   1.00800           0
     19717 MEMB     170      SLPC     H10Y     HAL2     0.900000E-01   1.00800           0
     19718 MEMB     170      SLPC     C311     CTL2    -0.180000       12.0110           0
     19719 MEMB     170      SLPC     H11X     HAL2     0.900000E-01   1.00800           0
     19720 MEMB     170      SLPC     H11Y     HAL2     0.900000E-01   1.00800           0
     19721 MEMB     170      SLPC     C312     CTL2    -0.180000       12.0110           0
     19722 MEMB     170      SLPC     H12X     HAL2     0.900000E-01   1.00800           0
     19723 MEMB     170      SLPC     H12Y     HAL2     0.900000E-01   1.00800           0
     19724 MEMB     170      SLPC     C313     CTL2    -0.180000       12.0110           0
     19725 MEMB     170      SLPC     H13X     HAL2     0.900000E-01   1.00800           0
     19726 MEMB     170      SLPC     H13Y     HAL2     0.900000E-01   1.00800           0
     19727 MEMB     170      SLPC     C314     CTL2    -0.180000       12.0110           0
     19728 MEMB     170      SLPC     H14X     HAL2     0.900000E-01   1.00800           0
     19729 MEMB     170      SLPC     H14Y     HAL2     0.900000E-01   1.00800           0
     19730 MEMB     170      SLPC     C315     CTL2    -0.180000       12.0110           0
     19731 MEMB     170      SLPC     H15X     HAL2     0.900000E-01   1.00800           0
     19732 MEMB     170      SLPC     H15Y     HAL2     0.900000E-01   1.00800           0
     19733 MEMB     170      SLPC     C316     CTL2    -0.180000       12.0110           0
     19734 MEMB     170      SLPC     H16X     HAL2     0.900000E-01   1.00800           0
     19735 MEMB     170      SLPC     H16Y     HAL2     0.900000E-01   1.00800           0
     19736 MEMB     170      SLPC     C317     CTL2    -0.180000       12.0110           0
     19737 MEMB     170      SLPC     H17X     HAL2     0.900000E-01   1.00800           0
     19738 MEMB     170      SLPC     H17Y     HAL2     0.900000E-01   1.00800           0
     19739 MEMB     170      SLPC     C318     CTL3    -0.270000       12.0110           0
     19740 MEMB     170      SLPC     H18X     HAL3     0.900000E-01   1.00800           0
     19741 MEMB     170      SLPC     H18Y     HAL3     0.900000E-01   1.00800           0
     19742 MEMB     170      SLPC     H18Z     HAL3     0.900000E-01   1.00800           0
     19743 MEMB     171      SAPC     N        NTL     -0.600000       14.0070           0
     19744 MEMB     171      SAPC     C12      CTL2    -0.100000       12.0110           0
     19745 MEMB     171      SAPC     H12A     HL       0.250000       1.00800           0
     19746 MEMB     171      SAPC     H12B     HL       0.250000       1.00800           0
     19747 MEMB     171      SAPC     C13      CTL5    -0.350000       12.0110           0
     19748 MEMB     171      SAPC     H13A     HL       0.250000       1.00800           0
     19749 MEMB     171      SAPC     H13B     HL       0.250000       1.00800           0
     19750 MEMB     171      SAPC     H13C     HL       0.250000       1.00800           0
     19751 MEMB     171      SAPC     C14      CTL5    -0.350000       12.0110           0
     19752 MEMB     171      SAPC     H14A     HL       0.250000       1.00800           0
     19753 MEMB     171      SAPC     H14B     HL       0.250000       1.00800           0
     19754 MEMB     171      SAPC     H14C     HL       0.250000       1.00800           0
     19755 MEMB     171      SAPC     C15      CTL5    -0.350000       12.0110           0
     19756 MEMB     171      SAPC     H15A     HL       0.250000       1.00800           0
     19757 MEMB     171      SAPC     H15B     HL       0.250000       1.00800           0
     19758 MEMB     171      SAPC     H15C     HL       0.250000       1.00800           0
     19759 MEMB     171      SAPC     C11      CTL2    -0.800000E-01   12.0110           0
     19760 MEMB     171      SAPC     H11A     HAL2     0.900000E-01   1.00800           0
     19761 MEMB     171      SAPC     H11B     HAL2     0.900000E-01   1.00800           0
     19762 MEMB     171      SAPC     P        PL        1.50000       30.9740           0
     19763 MEMB     171      SAPC     O13      O2L     -0.780000       15.9994           0
     19764 MEMB     171      SAPC     O14      O2L     -0.780000       15.9994           0
     19765 MEMB     171      SAPC     O12      OSLP    -0.570000       15.9994           0
     19766 MEMB     171      SAPC     O11      OSLP    -0.570000       15.9994           0
     19767 MEMB     171      SAPC     C1       CTL2    -0.800000E-01   12.0110           0
     19768 MEMB     171      SAPC     HA       HAL2     0.900000E-01   1.00800           0
     19769 MEMB     171      SAPC     HB       HAL2     0.900000E-01   1.00800           0
     19770 MEMB     171      SAPC     C2       CTL1     0.170000       12.0110           0
     19771 MEMB     171      SAPC     HS       HAL1     0.900000E-01   1.00800           0
     19772 MEMB     171      SAPC     O21      OSL     -0.490000       15.9994           0
     19773 MEMB     171      SAPC     C21      CL       0.900000       12.0110           0
     19774 MEMB     171      SAPC     O22      OBL     -0.630000       15.9994           0
     19775 MEMB     171      SAPC     C22      CTL2    -0.220000       12.0110           0
     19776 MEMB     171      SAPC     H2R      HAL2     0.900000E-01   1.00800           0
     19777 MEMB     171      SAPC     H2S      HAL2     0.900000E-01   1.00800           0
     19778 MEMB     171      SAPC     C3       CTL2     0.800000E-01   12.0110           0
     19779 MEMB     171      SAPC     HX       HAL2     0.900000E-01   1.00800           0
     19780 MEMB     171      SAPC     HY       HAL2     0.900000E-01   1.00800           0
     19781 MEMB     171      SAPC     O31      OSL     -0.490000       15.9994           0
     19782 MEMB     171      SAPC     C31      CL       0.900000       12.0110           0
     19783 MEMB     171      SAPC     O32      OBL     -0.630000       15.9994           0
     19784 MEMB     171      SAPC     C32      CTL2    -0.220000       12.0110           0
     19785 MEMB     171      SAPC     H2X      HAL2     0.900000E-01   1.00800           0
     19786 MEMB     171      SAPC     H2Y      HAL2     0.900000E-01   1.00800           0
     19787 MEMB     171      SAPC     C23      CTL2    -0.180000       12.0110           0
     19788 MEMB     171      SAPC     H3R      HAL2     0.900000E-01   1.00800           0
     19789 MEMB     171      SAPC     H3S      HAL2     0.900000E-01   1.00800           0
     19790 MEMB     171      SAPC     C24      CTL2    -0.180000       12.0110           0
     19791 MEMB     171      SAPC     H4R      HAL2     0.900000E-01   1.00800           0
     19792 MEMB     171      SAPC     H4S      HAL2     0.900000E-01   1.00800           0
     19793 MEMB     171      SAPC     C25      CEL1    -0.150000       12.0110           0
     19794 MEMB     171      SAPC     H5R      HEL1     0.150000       1.00800           0
     19795 MEMB     171      SAPC     C26      CEL1    -0.150000       12.0110           0
     19796 MEMB     171      SAPC     H6R      HEL1     0.150000       1.00800           0
     19797 MEMB     171      SAPC     C27      CTL2    -0.180000       12.0110           0
     19798 MEMB     171      SAPC     H7R      HAL2     0.900000E-01   1.00800           0
     19799 MEMB     171      SAPC     H7S      HAL2     0.900000E-01   1.00800           0
     19800 MEMB     171      SAPC     C28      CEL1    -0.150000       12.0110           0
     19801 MEMB     171      SAPC     H8R      HEL1     0.150000       1.00800           0
     19802 MEMB     171      SAPC     C29      CEL1    -0.150000       12.0110           0
     19803 MEMB     171      SAPC     H9R      HEL1     0.150000       1.00800           0
     19804 MEMB     171      SAPC     C210     CTL2    -0.180000       12.0110           0
     19805 MEMB     171      SAPC     H10R     HAL2     0.900000E-01   1.00800           0
     19806 MEMB     171      SAPC     H10S     HAL2     0.900000E-01   1.00800           0
     19807 MEMB     171      SAPC     C211     CEL1    -0.150000       12.0110           0
     19808 MEMB     171      SAPC     H11R     HEL1     0.150000       1.00800           0
     19809 MEMB     171      SAPC     C212     CEL1    -0.150000       12.0110           0
     19810 MEMB     171      SAPC     H12R     HEL1     0.150000       1.00800           0
     19811 MEMB     171      SAPC     C213     CTL2    -0.180000       12.0110           0
     19812 MEMB     171      SAPC     H13R     HAL2     0.900000E-01   1.00800           0
     19813 MEMB     171      SAPC     H13S     HAL2     0.900000E-01   1.00800           0
     19814 MEMB     171      SAPC     C214     CEL1    -0.150000       12.0110           0
     19815 MEMB     171      SAPC     H14R     HEL1     0.150000       1.00800           0
     19816 MEMB     171      SAPC     C215     CEL1    -0.150000       12.0110           0
     19817 MEMB     171      SAPC     H15R     HEL1     0.150000       1.00800           0
     19818 MEMB     171      SAPC     C216     CTL2    -0.180000       12.0110           0
     19819 MEMB     171      SAPC     H16R     HAL2     0.900000E-01   1.00800           0
     19820 MEMB     171      SAPC     H16S     HAL2     0.900000E-01   1.00800           0
     19821 MEMB     171      SAPC     C217     CTL2    -0.180000       12.0110           0
     19822 MEMB     171      SAPC     H17R     HAL2     0.900000E-01   1.00800           0
     19823 MEMB     171      SAPC     H17S     HAL2     0.900000E-01   1.00800           0
     19824 MEMB     171      SAPC     C218     CTL2    -0.270000       12.0110           0
     19825 MEMB     171      SAPC     H18R     HAL2     0.900000E-01   1.00800           0
     19826 MEMB     171      SAPC     H18S     HAL2     0.900000E-01   1.00800           0
     19827 MEMB     171      SAPC     C219     CTL2    -0.180000       12.0110           0
     19828 MEMB     171      SAPC     H19R     HAL2     0.900000E-01   1.00800           0
     19829 MEMB     171      SAPC     H19S     HAL2     0.900000E-01   1.00800           0
     19830 MEMB     171      SAPC     C220     CTL3    -0.180000       12.0110           0
     19831 MEMB     171      SAPC     H20R     HAL3     0.900000E-01   1.00800           0
     19832 MEMB     171      SAPC     H20S     HAL3     0.900000E-01   1.00800           0
     19833 MEMB     171      SAPC     H20T     HAL3     0.900000E-01   1.00800           0
     19834 MEMB     171      SAPC     C33      CTL2    -0.180000       12.0110           0
     19835 MEMB     171      SAPC     H3X      HAL2     0.900000E-01   1.00800           0
     19836 MEMB     171      SAPC     H3Y      HAL2     0.900000E-01   1.00800           0
     19837 MEMB     171      SAPC     C34      CTL2    -0.180000       12.0110           0
     19838 MEMB     171      SAPC     H4X      HAL2     0.900000E-01   1.00800           0
     19839 MEMB     171      SAPC     H4Y      HAL2     0.900000E-01   1.00800           0
     19840 MEMB     171      SAPC     C35      CTL2    -0.180000       12.0110           0
     19841 MEMB     171      SAPC     H5X      HAL2     0.900000E-01   1.00800           0
     19842 MEMB     171      SAPC     H5Y      HAL2     0.900000E-01   1.00800           0
     19843 MEMB     171      SAPC     C36      CTL2    -0.180000       12.0110           0
     19844 MEMB     171      SAPC     H6X      HAL2     0.900000E-01   1.00800           0
     19845 MEMB     171      SAPC     H6Y      HAL2     0.900000E-01   1.00800           0
     19846 MEMB     171      SAPC     C37      CTL2    -0.180000       12.0110           0
     19847 MEMB     171      SAPC     H7X      HAL2     0.900000E-01   1.00800           0
     19848 MEMB     171      SAPC     H7Y      HAL2     0.900000E-01   1.00800           0
     19849 MEMB     171      SAPC     C38      CTL2    -0.180000       12.0110           0
     19850 MEMB     171      SAPC     H8X      HAL2     0.900000E-01   1.00800           0
     19851 MEMB     171      SAPC     H8Y      HAL2     0.900000E-01   1.00800           0
     19852 MEMB     171      SAPC     C39      CTL2    -0.180000       12.0110           0
     19853 MEMB     171      SAPC     H9X      HAL2     0.900000E-01   1.00800           0
     19854 MEMB     171      SAPC     H9Y      HAL2     0.900000E-01   1.00800           0
     19855 MEMB     171      SAPC     C310     CTL2    -0.180000       12.0110           0
     19856 MEMB     171      SAPC     H10X     HAL2     0.900000E-01   1.00800           0
     19857 MEMB     171      SAPC     H10Y     HAL2     0.900000E-01   1.00800           0
     19858 MEMB     171      SAPC     C311     CTL2    -0.180000       12.0110           0
     19859 MEMB     171      SAPC     H11X     HAL2     0.900000E-01   1.00800           0
     19860 MEMB     171      SAPC     H11Y     HAL2     0.900000E-01   1.00800           0
     19861 MEMB     171      SAPC     C312     CTL2    -0.180000       12.0110           0
     19862 MEMB     171      SAPC     H12X     HAL2     0.900000E-01   1.00800           0
     19863 MEMB     171      SAPC     H12Y     HAL2     0.900000E-01   1.00800           0
     19864 MEMB     171      SAPC     C313     CTL2    -0.180000       12.0110           0
     19865 MEMB     171      SAPC     H13X     HAL2     0.900000E-01   1.00800           0
     19866 MEMB     171      SAPC     H13Y     HAL2     0.900000E-01   1.00800           0
     19867 MEMB     171      SAPC     C314     CTL2    -0.180000       12.0110           0
     19868 MEMB     171      SAPC     H14X     HAL2     0.900000E-01   1.00800           0
     19869 MEMB     171      SAPC     H14Y     HAL2     0.900000E-01   1.00800           0
     19870 MEMB     171      SAPC     C315     CTL2    -0.180000       12.0110           0
     19871 MEMB     171      SAPC     H15X     HAL2     0.900000E-01   1.00800           0
     19872 MEMB     171      SAPC     H15Y     HAL2     0.900000E-01   1.00800           0
     19873 MEMB     171      SAPC     C316     CTL2    -0.180000       12.0110           0
     19874 MEMB     171      SAPC     H16X     HAL2     0.900000E-01   1.00800           0
     19875 MEMB     171      SAPC     H16Y     HAL2     0.900000E-01   1.00800           0
     19876 MEMB     171      SAPC     C317     CTL2    -0.180000       12.0110           0
     19877 MEMB     171      SAPC     H17X     HAL2     0.900000E-01   1.00800           0
     19878 MEMB     171      SAPC     H17Y     HAL2     0.900000E-01   1.00800           0
     19879 MEMB     171      SAPC     C318     CTL3    -0.270000       12.0110           0
     19880 MEMB     171      SAPC     H18X     HAL3     0.900000E-01   1.00800           0
     19881 MEMB     171      SAPC     H18Y     HAL3     0.900000E-01   1.00800           0
     19882 MEMB     171      SAPC     H18Z     HAL3     0.900000E-01   1.00800           0
     19883 MEMB     172      SLPC     N        NTL     -0.600000       14.0070           0
     19884 MEMB     172      SLPC     C13      CTL5    -0.350000       12.0110           0
     19885 MEMB     172      SLPC     H13A     HL       0.250000       1.00800           0
     19886 MEMB     172      SLPC     H13B     HL       0.250000       1.00800           0
     19887 MEMB     172      SLPC     H13C     HL       0.250000       1.00800           0
     19888 MEMB     172      SLPC     C14      CTL5    -0.350000       12.0110           0
     19889 MEMB     172      SLPC     H14A     HL       0.250000       1.00800           0
     19890 MEMB     172      SLPC     H14B     HL       0.250000       1.00800           0
     19891 MEMB     172      SLPC     H14C     HL       0.250000       1.00800           0
     19892 MEMB     172      SLPC     C15      CTL5    -0.350000       12.0110           0
     19893 MEMB     172      SLPC     H15A     HL       0.250000       1.00800           0
     19894 MEMB     172      SLPC     H15B     HL       0.250000       1.00800           0
     19895 MEMB     172      SLPC     H15C     HL       0.250000       1.00800           0
     19896 MEMB     172      SLPC     C12      CTL2    -0.100000       12.0110           0
     19897 MEMB     172      SLPC     H12A     HL       0.250000       1.00800           0
     19898 MEMB     172      SLPC     H12B     HL       0.250000       1.00800           0
     19899 MEMB     172      SLPC     C11      CTL2    -0.800000E-01   12.0110           0
     19900 MEMB     172      SLPC     H11A     HAL2     0.900000E-01   1.00800           0
     19901 MEMB     172      SLPC     H11B     HAL2     0.900000E-01   1.00800           0
     19902 MEMB     172      SLPC     P        PL        1.50000       30.9740           0
     19903 MEMB     172      SLPC     O13      O2L     -0.780000       15.9994           0
     19904 MEMB     172      SLPC     O14      O2L     -0.780000       15.9994           0
     19905 MEMB     172      SLPC     O12      OSLP    -0.570000       15.9994           0
     19906 MEMB     172      SLPC     O11      OSLP    -0.570000       15.9994           0
     19907 MEMB     172      SLPC     C1       CTL2    -0.800000E-01   12.0110           0
     19908 MEMB     172      SLPC     HA       HAL2     0.900000E-01   1.00800           0
     19909 MEMB     172      SLPC     HB       HAL2     0.900000E-01   1.00800           0
     19910 MEMB     172      SLPC     C2       CTL1     0.170000       12.0110           0
     19911 MEMB     172      SLPC     HS       HAL1     0.900000E-01   1.00800           0
     19912 MEMB     172      SLPC     O21      OSL     -0.490000       15.9994           0
     19913 MEMB     172      SLPC     C21      CL       0.900000       12.0110           0
     19914 MEMB     172      SLPC     O22      OBL     -0.630000       15.9994           0
     19915 MEMB     172      SLPC     C22      CTL2    -0.220000       12.0110           0
     19916 MEMB     172      SLPC     H2R      HAL2     0.900000E-01   1.00800           0
     19917 MEMB     172      SLPC     H2S      HAL2     0.900000E-01   1.00800           0
     19918 MEMB     172      SLPC     C3       CTL2     0.800000E-01   12.0110           0
     19919 MEMB     172      SLPC     HX       HAL2     0.900000E-01   1.00800           0
     19920 MEMB     172      SLPC     HY       HAL2     0.900000E-01   1.00800           0
     19921 MEMB     172      SLPC     O31      OSL     -0.490000       15.9994           0
     19922 MEMB     172      SLPC     C31      CL       0.900000       12.0110           0
     19923 MEMB     172      SLPC     O32      OBL     -0.630000       15.9994           0
     19924 MEMB     172      SLPC     C32      CTL2    -0.220000       12.0110           0
     19925 MEMB     172      SLPC     H2X      HAL2     0.900000E-01   1.00800           0
     19926 MEMB     172      SLPC     H2Y      HAL2     0.900000E-01   1.00800           0
     19927 MEMB     172      SLPC     C23      CTL2    -0.180000       12.0110           0
     19928 MEMB     172      SLPC     H3R      HAL2     0.900000E-01   1.00800           0
     19929 MEMB     172      SLPC     H3S      HAL2     0.900000E-01   1.00800           0
     19930 MEMB     172      SLPC     C24      CTL2    -0.180000       12.0110           0
     19931 MEMB     172      SLPC     H4R      HAL2     0.900000E-01   1.00800           0
     19932 MEMB     172      SLPC     H4S      HAL2     0.900000E-01   1.00800           0
     19933 MEMB     172      SLPC     C25      CTL2    -0.180000       12.0110           0
     19934 MEMB     172      SLPC     H5R      HAL2     0.900000E-01   1.00800           0
     19935 MEMB     172      SLPC     H5S      HAL2     0.900000E-01   1.00800           0
     19936 MEMB     172      SLPC     C26      CTL2    -0.180000       12.0110           0
     19937 MEMB     172      SLPC     H6R      HAL2     0.900000E-01   1.00800           0
     19938 MEMB     172      SLPC     H6S      HAL2     0.900000E-01   1.00800           0
     19939 MEMB     172      SLPC     C27      CTL2    -0.180000       12.0110           0
     19940 MEMB     172      SLPC     H7R      HAL2     0.900000E-01   1.00800           0
     19941 MEMB     172      SLPC     H7S      HAL2     0.900000E-01   1.00800           0
     19942 MEMB     172      SLPC     C28      CTL2    -0.180000       12.0110           0
     19943 MEMB     172      SLPC     H8R      HAL2     0.900000E-01   1.00800           0
     19944 MEMB     172      SLPC     H8S      HAL2     0.900000E-01   1.00800           0
     19945 MEMB     172      SLPC     C29      CEL1    -0.150000       12.0110           0
     19946 MEMB     172      SLPC     H9R      HEL1     0.150000       1.00800           0
     19947 MEMB     172      SLPC     C210     CEL1    -0.150000       12.0110           0
     19948 MEMB     172      SLPC     H10R     HEL1     0.150000       1.00800           0
     19949 MEMB     172      SLPC     C211     CTL2    -0.180000       12.0110           0
     19950 MEMB     172      SLPC     H11R     HAL2     0.900000E-01   1.00800           0
     19951 MEMB     172      SLPC     H11S     HAL2     0.900000E-01   1.00800           0
     19952 MEMB     172      SLPC     C212     CEL1    -0.150000       12.0110           0
     19953 MEMB     172      SLPC     H12R     HEL1     0.150000       1.00800           0
     19954 MEMB     172      SLPC     C213     CEL1    -0.150000       12.0110           0
     19955 MEMB     172      SLPC     H13R     HEL1     0.150000       1.00800           0
     19956 MEMB     172      SLPC     C214     CTL2    -0.180000       12.0110           0
     19957 MEMB     172      SLPC     H14R     HAL2     0.900000E-01   1.00800           0
     19958 MEMB     172      SLPC     H14S     HAL2     0.900000E-01   1.00800           0
     19959 MEMB     172      SLPC     C215     CTL2    -0.180000       12.0110           0
     19960 MEMB     172      SLPC     H15R     HAL2     0.900000E-01   1.00800           0
     19961 MEMB     172      SLPC     H15S     HAL2     0.900000E-01   1.00800           0
     19962 MEMB     172      SLPC     C216     CTL2    -0.180000       12.0110           0
     19963 MEMB     172      SLPC     H16R     HAL2     0.900000E-01   1.00800           0
     19964 MEMB     172      SLPC     H16S     HAL2     0.900000E-01   1.00800           0
     19965 MEMB     172      SLPC     C217     CTL2    -0.180000       12.0110           0
     19966 MEMB     172      SLPC     H17R     HAL2     0.900000E-01   1.00800           0
     19967 MEMB     172      SLPC     H17S     HAL2     0.900000E-01   1.00800           0
     19968 MEMB     172      SLPC     C218     CTL3    -0.270000       12.0110           0
     19969 MEMB     172      SLPC     H18R     HAL3     0.900000E-01   1.00800           0
     19970 MEMB     172      SLPC     H18S     HAL3     0.900000E-01   1.00800           0
     19971 MEMB     172      SLPC     H18T     HAL3     0.900000E-01   1.00800           0
     19972 MEMB     172      SLPC     C33      CTL2    -0.180000       12.0110           0
     19973 MEMB     172      SLPC     H3X      HAL2     0.900000E-01   1.00800           0
     19974 MEMB     172      SLPC     H3Y      HAL2     0.900000E-01   1.00800           0
     19975 MEMB     172      SLPC     C34      CTL2    -0.180000       12.0110           0
     19976 MEMB     172      SLPC     H4X      HAL2     0.900000E-01   1.00800           0
     19977 MEMB     172      SLPC     H4Y      HAL2     0.900000E-01   1.00800           0
     19978 MEMB     172      SLPC     C35      CTL2    -0.180000       12.0110           0
     19979 MEMB     172      SLPC     H5X      HAL2     0.900000E-01   1.00800           0
     19980 MEMB     172      SLPC     H5Y      HAL2     0.900000E-01   1.00800           0
     19981 MEMB     172      SLPC     C36      CTL2    -0.180000       12.0110           0
     19982 MEMB     172      SLPC     H6X      HAL2     0.900000E-01   1.00800           0
     19983 MEMB     172      SLPC     H6Y      HAL2     0.900000E-01   1.00800           0
     19984 MEMB     172      SLPC     C37      CTL2    -0.180000       12.0110           0
     19985 MEMB     172      SLPC     H7X      HAL2     0.900000E-01   1.00800           0
     19986 MEMB     172      SLPC     H7Y      HAL2     0.900000E-01   1.00800           0
     19987 MEMB     172      SLPC     C38      CTL2    -0.180000       12.0110           0
     19988 MEMB     172      SLPC     H8X      HAL2     0.900000E-01   1.00800           0
     19989 MEMB     172      SLPC     H8Y      HAL2     0.900000E-01   1.00800           0
     19990 MEMB     172      SLPC     C39      CTL2    -0.180000       12.0110           0
     19991 MEMB     172      SLPC     H9X      HAL2     0.900000E-01   1.00800           0
     19992 MEMB     172      SLPC     H9Y      HAL2     0.900000E-01   1.00800           0
     19993 MEMB     172      SLPC     C310     CTL2    -0.180000       12.0110           0
     19994 MEMB     172      SLPC     H10X     HAL2     0.900000E-01   1.00800           0
     19995 MEMB     172      SLPC     H10Y     HAL2     0.900000E-01   1.00800           0
     19996 MEMB     172      SLPC     C311     CTL2    -0.180000       12.0110           0
     19997 MEMB     172      SLPC     H11X     HAL2     0.900000E-01   1.00800           0
     19998 MEMB     172      SLPC     H11Y     HAL2     0.900000E-01   1.00800           0
     19999 MEMB     172      SLPC     C312     CTL2    -0.180000       12.0110           0
     20000 MEMB     172      SLPC     H12X     HAL2     0.900000E-01   1.00800           0
     20001 MEMB     172      SLPC     H12Y     HAL2     0.900000E-01   1.00800           0
     20002 MEMB     172      SLPC     C313     CTL2    -0.180000       12.0110           0
     20003 MEMB     172      SLPC     H13X     HAL2     0.900000E-01   1.00800           0
     20004 MEMB     172      SLPC     H13Y     HAL2     0.900000E-01   1.00800           0
     20005 MEMB     172      SLPC     C314     CTL2    -0.180000       12.0110           0
     20006 MEMB     172      SLPC     H14X     HAL2     0.900000E-01   1.00800           0
     20007 MEMB     172      SLPC     H14Y     HAL2     0.900000E-01   1.00800           0
     20008 MEMB     172      SLPC     C315     CTL2    -0.180000       12.0110           0
     20009 MEMB     172      SLPC     H15X     HAL2     0.900000E-01   1.00800           0
     20010 MEMB     172      SLPC     H15Y     HAL2     0.900000E-01   1.00800           0
     20011 MEMB     172      SLPC     C316     CTL2    -0.180000       12.0110           0
     20012 MEMB     172      SLPC     H16X     HAL2     0.900000E-01   1.00800           0
     20013 MEMB     172      SLPC     H16Y     HAL2     0.900000E-01   1.00800           0
     20014 MEMB     172      SLPC     C317     CTL2    -0.180000       12.0110           0
     20015 MEMB     172      SLPC     H17X     HAL2     0.900000E-01   1.00800           0
     20016 MEMB     172      SLPC     H17Y     HAL2     0.900000E-01   1.00800           0
     20017 MEMB     172      SLPC     C318     CTL3    -0.270000       12.0110           0
     20018 MEMB     172      SLPC     H18X     HAL3     0.900000E-01   1.00800           0
     20019 MEMB     172      SLPC     H18Y     HAL3     0.900000E-01   1.00800           0
     20020 MEMB     172      SLPC     H18Z     HAL3     0.900000E-01   1.00800           0
     20021 MEMB     173      CHL1     C3       CRL1     0.140000       12.0110           0
     20022 MEMB     173      CHL1     H3       HGA1     0.900000E-01   1.00800           0
     20023 MEMB     173      CHL1     O3       OHL     -0.660000       15.9994           0
     20024 MEMB     173      CHL1     H3'      HOL      0.430000       1.00800           0
     20025 MEMB     173      CHL1     C4       CRL2    -0.180000       12.0110           0
     20026 MEMB     173      CHL1     H4A      HGA2     0.900000E-01   1.00800           0
     20027 MEMB     173      CHL1     H4B      HGA2     0.900000E-01   1.00800           0
     20028 MEMB     173      CHL1     C5       CEL1      0.00000       12.0110           0
     20029 MEMB     173      CHL1     C6       CEL1    -0.150000       12.0110           0
     20030 MEMB     173      CHL1     H6       HEL1     0.150000       1.00800           0
     20031 MEMB     173      CHL1     C7       CRL2    -0.180000       12.0110           0
     20032 MEMB     173      CHL1     H7A      HGA2     0.900000E-01   1.00800           0
     20033 MEMB     173      CHL1     H7B      HGA2     0.900000E-01   1.00800           0
     20034 MEMB     173      CHL1     C8       CRL1    -0.900000E-01   12.0110           0
     20035 MEMB     173      CHL1     H8       HGA1     0.900000E-01   1.00800           0
     20036 MEMB     173      CHL1     C14      CRL1    -0.900000E-01   12.0110           0
     20037 MEMB     173      CHL1     H14      HGA1     0.900000E-01   1.00800           0
     20038 MEMB     173      CHL1     C15      CRL2    -0.180000       12.0110           0
     20039 MEMB     173      CHL1     H15A     HGA2     0.900000E-01   1.00800           0
     20040 MEMB     173      CHL1     H15B     HGA2     0.900000E-01   1.00800           0
     20041 MEMB     173      CHL1     C16      CRL2    -0.180000       12.0110           0
     20042 MEMB     173      CHL1     H16A     HGA2     0.900000E-01   1.00800           0
     20043 MEMB     173      CHL1     H16B     HGA2     0.900000E-01   1.00800           0
     20044 MEMB     173      CHL1     C17      CRL1    -0.900000E-01   12.0110           0
     20045 MEMB     173      CHL1     H17      HGA1     0.900000E-01   1.00800           0
     20046 MEMB     173      CHL1     C13      CRL1      0.00000       12.0110           0
     20047 MEMB     173      CHL1     C18      CTL3    -0.270000       12.0110           0
     20048 MEMB     173      CHL1     H18A     HAL3     0.900000E-01   1.00800           0
     20049 MEMB     173      CHL1     H18B     HAL3     0.900000E-01   1.00800           0
     20050 MEMB     173      CHL1     H18C     HAL3     0.900000E-01   1.00800           0
     20051 MEMB     173      CHL1     C12      CRL2    -0.180000       12.0110           0
     20052 MEMB     173      CHL1     H12A     HGA2     0.900000E-01   1.00800           0
     20053 MEMB     173      CHL1     H12B     HGA2     0.900000E-01   1.00800           0
     20054 MEMB     173      CHL1     C11      CRL2    -0.180000       12.0110           0
     20055 MEMB     173      CHL1     H11A     HGA2     0.900000E-01   1.00800           0
     20056 MEMB     173      CHL1     H11B     HGA2     0.900000E-01   1.00800           0
     20057 MEMB     173      CHL1     C9       CRL1    -0.900000E-01   12.0110           0
     20058 MEMB     173      CHL1     H9       HGA1     0.900000E-01   1.00800           0
     20059 MEMB     173      CHL1     C10      CRL1      0.00000       12.0110           0
     20060 MEMB     173      CHL1     C19      CTL3    -0.270000       12.0110           0
     20061 MEMB     173      CHL1     H19A     HAL3     0.900000E-01   1.00800           0
     20062 MEMB     173      CHL1     H19B     HAL3     0.900000E-01   1.00800           0
     20063 MEMB     173      CHL1     H19C     HAL3     0.900000E-01   1.00800           0
     20064 MEMB     173      CHL1     C1       CRL2    -0.180000       12.0110           0
     20065 MEMB     173      CHL1     H1A      HGA2     0.900000E-01   1.00800           0
     20066 MEMB     173      CHL1     H1B      HGA2     0.900000E-01   1.00800           0
     20067 MEMB     173      CHL1     C2       CRL2    -0.180000       12.0110           0
     20068 MEMB     173      CHL1     H2A      HGA2     0.900000E-01   1.00800           0
     20069 MEMB     173      CHL1     H2B      HGA2     0.900000E-01   1.00800           0
     20070 MEMB     173      CHL1     C20      CTL1    -0.900000E-01   12.0110           0
     20071 MEMB     173      CHL1     H20      HAL1     0.900000E-01   1.00800           0
     20072 MEMB     173      CHL1     C21      CTL3    -0.270000       12.0110           0
     20073 MEMB     173      CHL1     H21A     HAL3     0.900000E-01   1.00800           0
     20074 MEMB     173      CHL1     H21B     HAL3     0.900000E-01   1.00800           0
     20075 MEMB     173      CHL1     H21C     HAL3     0.900000E-01   1.00800           0
     20076 MEMB     173      CHL1     C22      CTL2    -0.180000       12.0110           0
     20077 MEMB     173      CHL1     H22A     HAL2     0.900000E-01   1.00800           0
     20078 MEMB     173      CHL1     H22B     HAL2     0.900000E-01   1.00800           0
     20079 MEMB     173      CHL1     C23      CTL2    -0.180000       12.0110           0
     20080 MEMB     173      CHL1     H23A     HAL2     0.900000E-01   1.00800           0
     20081 MEMB     173      CHL1     H23B     HAL2     0.900000E-01   1.00800           0
     20082 MEMB     173      CHL1     C24      CTL2    -0.180000       12.0110           0
     20083 MEMB     173      CHL1     H24A     HAL2     0.900000E-01   1.00800           0
     20084 MEMB     173      CHL1     H24B     HAL2     0.900000E-01   1.00800           0
     20085 MEMB     173      CHL1     C25      CTL1    -0.900000E-01   12.0110           0
     20086 MEMB     173      CHL1     H25      HAL1     0.900000E-01   1.00800           0
     20087 MEMB     173      CHL1     C26      CTL3    -0.270000       12.0110           0
     20088 MEMB     173      CHL1     H26A     HAL3     0.900000E-01   1.00800           0
     20089 MEMB     173      CHL1     H26B     HAL3     0.900000E-01   1.00800           0
     20090 MEMB     173      CHL1     H26C     HAL3     0.900000E-01   1.00800           0
     20091 MEMB     173      CHL1     C27      CTL3    -0.270000       12.0110           0
     20092 MEMB     173      CHL1     H27A     HAL3     0.900000E-01   1.00800           0
     20093 MEMB     173      CHL1     H27B     HAL3     0.900000E-01   1.00800           0
     20094 MEMB     173      CHL1     H27C     HAL3     0.900000E-01   1.00800           0
     20095 MEMB     174      CHL1     C3       CRL1     0.140000       12.0110           0
     20096 MEMB     174      CHL1     H3       HGA1     0.900000E-01   1.00800           0
     20097 MEMB     174      CHL1     O3       OHL     -0.660000       15.9994           0
     20098 MEMB     174      CHL1     H3'      HOL      0.430000       1.00800           0
     20099 MEMB     174      CHL1     C4       CRL2    -0.180000       12.0110           0
     20100 MEMB     174      CHL1     H4A      HGA2     0.900000E-01   1.00800           0
     20101 MEMB     174      CHL1     H4B      HGA2     0.900000E-01   1.00800           0
     20102 MEMB     174      CHL1     C5       CEL1      0.00000       12.0110           0
     20103 MEMB     174      CHL1     C6       CEL1    -0.150000       12.0110           0
     20104 MEMB     174      CHL1     H6       HEL1     0.150000       1.00800           0
     20105 MEMB     174      CHL1     C7       CRL2    -0.180000       12.0110           0
     20106 MEMB     174      CHL1     H7A      HGA2     0.900000E-01   1.00800           0
     20107 MEMB     174      CHL1     H7B      HGA2     0.900000E-01   1.00800           0
     20108 MEMB     174      CHL1     C8       CRL1    -0.900000E-01   12.0110           0
     20109 MEMB     174      CHL1     H8       HGA1     0.900000E-01   1.00800           0
     20110 MEMB     174      CHL1     C14      CRL1    -0.900000E-01   12.0110           0
     20111 MEMB     174      CHL1     H14      HGA1     0.900000E-01   1.00800           0
     20112 MEMB     174      CHL1     C15      CRL2    -0.180000       12.0110           0
     20113 MEMB     174      CHL1     H15A     HGA2     0.900000E-01   1.00800           0
     20114 MEMB     174      CHL1     H15B     HGA2     0.900000E-01   1.00800           0
     20115 MEMB     174      CHL1     C16      CRL2    -0.180000       12.0110           0
     20116 MEMB     174      CHL1     H16A     HGA2     0.900000E-01   1.00800           0
     20117 MEMB     174      CHL1     H16B     HGA2     0.900000E-01   1.00800           0
     20118 MEMB     174      CHL1     C17      CRL1    -0.900000E-01   12.0110           0
     20119 MEMB     174      CHL1     H17      HGA1     0.900000E-01   1.00800           0
     20120 MEMB     174      CHL1     C13      CRL1      0.00000       12.0110           0
     20121 MEMB     174      CHL1     C18      CTL3    -0.270000       12.0110           0
     20122 MEMB     174      CHL1     H18A     HAL3     0.900000E-01   1.00800           0
     20123 MEMB     174      CHL1     H18B     HAL3     0.900000E-01   1.00800           0
     20124 MEMB     174      CHL1     H18C     HAL3     0.900000E-01   1.00800           0
     20125 MEMB     174      CHL1     C12      CRL2    -0.180000       12.0110           0
     20126 MEMB     174      CHL1     H12A     HGA2     0.900000E-01   1.00800           0
     20127 MEMB     174      CHL1     H12B     HGA2     0.900000E-01   1.00800           0
     20128 MEMB     174      CHL1     C11      CRL2    -0.180000       12.0110           0
     20129 MEMB     174      CHL1     H11A     HGA2     0.900000E-01   1.00800           0
     20130 MEMB     174      CHL1     H11B     HGA2     0.900000E-01   1.00800           0
     20131 MEMB     174      CHL1     C9       CRL1    -0.900000E-01   12.0110           0
     20132 MEMB     174      CHL1     H9       HGA1     0.900000E-01   1.00800           0
     20133 MEMB     174      CHL1     C10      CRL1      0.00000       12.0110           0
     20134 MEMB     174      CHL1     C19      CTL3    -0.270000       12.0110           0
     20135 MEMB     174      CHL1     H19A     HAL3     0.900000E-01   1.00800           0
     20136 MEMB     174      CHL1     H19B     HAL3     0.900000E-01   1.00800           0
     20137 MEMB     174      CHL1     H19C     HAL3     0.900000E-01   1.00800           0
     20138 MEMB     174      CHL1     C1       CRL2    -0.180000       12.0110           0
     20139 MEMB     174      CHL1     H1A      HGA2     0.900000E-01   1.00800           0
     20140 MEMB     174      CHL1     H1B      HGA2     0.900000E-01   1.00800           0
     20141 MEMB     174      CHL1     C2       CRL2    -0.180000       12.0110           0
     20142 MEMB     174      CHL1     H2A      HGA2     0.900000E-01   1.00800           0
     20143 MEMB     174      CHL1     H2B      HGA2     0.900000E-01   1.00800           0
     20144 MEMB     174      CHL1     C20      CTL1    -0.900000E-01   12.0110           0
     20145 MEMB     174      CHL1     H20      HAL1     0.900000E-01   1.00800           0
     20146 MEMB     174      CHL1     C21      CTL3    -0.270000       12.0110           0
     20147 MEMB     174      CHL1     H21A     HAL3     0.900000E-01   1.00800           0
     20148 MEMB     174      CHL1     H21B     HAL3     0.900000E-01   1.00800           0
     20149 MEMB     174      CHL1     H21C     HAL3     0.900000E-01   1.00800           0
     20150 MEMB     174      CHL1     C22      CTL2    -0.180000       12.0110           0
     20151 MEMB     174      CHL1     H22A     HAL2     0.900000E-01   1.00800           0
     20152 MEMB     174      CHL1     H22B     HAL2     0.900000E-01   1.00800           0
     20153 MEMB     174      CHL1     C23      CTL2    -0.180000       12.0110           0
     20154 MEMB     174      CHL1     H23A     HAL2     0.900000E-01   1.00800           0
     20155 MEMB     174      CHL1     H23B     HAL2     0.900000E-01   1.00800           0
     20156 MEMB     174      CHL1     C24      CTL2    -0.180000       12.0110           0
     20157 MEMB     174      CHL1     H24A     HAL2     0.900000E-01   1.00800           0
     20158 MEMB     174      CHL1     H24B     HAL2     0.900000E-01   1.00800           0
     20159 MEMB     174      CHL1     C25      CTL1    -0.900000E-01   12.0110           0
     20160 MEMB     174      CHL1     H25      HAL1     0.900000E-01   1.00800           0
     20161 MEMB     174      CHL1     C26      CTL3    -0.270000       12.0110           0
     20162 MEMB     174      CHL1     H26A     HAL3     0.900000E-01   1.00800           0
     20163 MEMB     174      CHL1     H26B     HAL3     0.900000E-01   1.00800           0
     20164 MEMB     174      CHL1     H26C     HAL3     0.900000E-01   1.00800           0
     20165 MEMB     174      CHL1     C27      CTL3    -0.270000       12.0110           0
     20166 MEMB     174      CHL1     H27A     HAL3     0.900000E-01   1.00800           0
     20167 MEMB     174      CHL1     H27B     HAL3     0.900000E-01   1.00800           0
     20168 MEMB     174      CHL1     H27C     HAL3     0.900000E-01   1.00800           0
     20169 MEMB     175      SAPE     N        NH3L    -0.300000       14.0070           0
     20170 MEMB     175      SAPE     HN1      HCL      0.330000       1.00800           0
     20171 MEMB     175      SAPE     HN2      HCL      0.330000       1.00800           0
     20172 MEMB     175      SAPE     HN3      HCL      0.330000       1.00800           0
     20173 MEMB     175      SAPE     C12      CTL2     0.130000       12.0110           0
     20174 MEMB     175      SAPE     H12A     HAL2     0.900000E-01   1.00800           0
     20175 MEMB     175      SAPE     H12B     HAL2     0.900000E-01   1.00800           0
     20176 MEMB     175      SAPE     C11      CTL2    -0.800000E-01   12.0110           0
     20177 MEMB     175      SAPE     H11A     HAL2     0.900000E-01   1.00800           0
     20178 MEMB     175      SAPE     H11B     HAL2     0.900000E-01   1.00800           0
     20179 MEMB     175      SAPE     P        PL        1.50000       30.9740           0
     20180 MEMB     175      SAPE     O13      O2L     -0.780000       15.9994           0
     20181 MEMB     175      SAPE     O14      O2L     -0.780000       15.9994           0
     20182 MEMB     175      SAPE     O12      OSLP    -0.570000       15.9994           0
     20183 MEMB     175      SAPE     O11      OSLP    -0.570000       15.9994           0
     20184 MEMB     175      SAPE     C1       CTL2    -0.800000E-01   12.0110           0
     20185 MEMB     175      SAPE     HA       HAL2     0.900000E-01   1.00800           0
     20186 MEMB     175      SAPE     HB       HAL2     0.900000E-01   1.00800           0
     20187 MEMB     175      SAPE     C2       CTL1     0.170000       12.0110           0
     20188 MEMB     175      SAPE     HS       HAL1     0.900000E-01   1.00800           0
     20189 MEMB     175      SAPE     O21      OSL     -0.490000       15.9994           0
     20190 MEMB     175      SAPE     C21      CL       0.900000       12.0110           0
     20191 MEMB     175      SAPE     O22      OBL     -0.630000       15.9994           0
     20192 MEMB     175      SAPE     C22      CTL2    -0.220000       12.0110           0
     20193 MEMB     175      SAPE     H2R      HAL2     0.900000E-01   1.00800           0
     20194 MEMB     175      SAPE     H2S      HAL2     0.900000E-01   1.00800           0
     20195 MEMB     175      SAPE     C3       CTL2     0.800000E-01   12.0110           0
     20196 MEMB     175      SAPE     HX       HAL2     0.900000E-01   1.00800           0
     20197 MEMB     175      SAPE     HY       HAL2     0.900000E-01   1.00800           0
     20198 MEMB     175      SAPE     O31      OSL     -0.490000       15.9994           0
     20199 MEMB     175      SAPE     C31      CL       0.900000       12.0110           0
     20200 MEMB     175      SAPE     O32      OBL     -0.630000       15.9994           0
     20201 MEMB     175      SAPE     C32      CTL2    -0.220000       12.0110           0
     20202 MEMB     175      SAPE     H2X      HAL2     0.900000E-01   1.00800           0
     20203 MEMB     175      SAPE     H2Y      HAL2     0.900000E-01   1.00800           0
     20204 MEMB     175      SAPE     C23      CTL2    -0.180000       12.0110           0
     20205 MEMB     175      SAPE     H3R      HAL2     0.900000E-01   1.00800           0
     20206 MEMB     175      SAPE     H3S      HAL2     0.900000E-01   1.00800           0
     20207 MEMB     175      SAPE     C24      CTL2    -0.180000       12.0110           0
     20208 MEMB     175      SAPE     H4R      HAL2     0.900000E-01   1.00800           0
     20209 MEMB     175      SAPE     H4S      HAL2     0.900000E-01   1.00800           0
     20210 MEMB     175      SAPE     C25      CEL1    -0.150000       12.0110           0
     20211 MEMB     175      SAPE     H5R      HEL1     0.150000       1.00800           0
     20212 MEMB     175      SAPE     C26      CEL1    -0.150000       12.0110           0
     20213 MEMB     175      SAPE     H6R      HEL1     0.150000       1.00800           0
     20214 MEMB     175      SAPE     C27      CTL2    -0.180000       12.0110           0
     20215 MEMB     175      SAPE     H7R      HAL2     0.900000E-01   1.00800           0
     20216 MEMB     175      SAPE     H7S      HAL2     0.900000E-01   1.00800           0
     20217 MEMB     175      SAPE     C28      CEL1    -0.150000       12.0110           0
     20218 MEMB     175      SAPE     H8R      HEL1     0.150000       1.00800           0
     20219 MEMB     175      SAPE     C29      CEL1    -0.150000       12.0110           0
     20220 MEMB     175      SAPE     H9R      HEL1     0.150000       1.00800           0
     20221 MEMB     175      SAPE     C210     CTL2    -0.180000       12.0110           0
     20222 MEMB     175      SAPE     H10R     HAL2     0.900000E-01   1.00800           0
     20223 MEMB     175      SAPE     H10S     HAL2     0.900000E-01   1.00800           0
     20224 MEMB     175      SAPE     C211     CEL1    -0.150000       12.0110           0
     20225 MEMB     175      SAPE     H11R     HEL1     0.150000       1.00800           0
     20226 MEMB     175      SAPE     C212     CEL1    -0.150000       12.0110           0
     20227 MEMB     175      SAPE     H12R     HEL1     0.150000       1.00800           0
     20228 MEMB     175      SAPE     C213     CTL2    -0.180000       12.0110           0
     20229 MEMB     175      SAPE     H13R     HAL2     0.900000E-01   1.00800           0
     20230 MEMB     175      SAPE     H13S     HAL2     0.900000E-01   1.00800           0
     20231 MEMB     175      SAPE     C214     CEL1    -0.150000       12.0110           0
     20232 MEMB     175      SAPE     H14R     HEL1     0.150000       1.00800           0
     20233 MEMB     175      SAPE     C215     CEL1    -0.150000       12.0110           0
     20234 MEMB     175      SAPE     H15R     HEL1     0.150000       1.00800           0
     20235 MEMB     175      SAPE     C216     CTL2    -0.180000       12.0110           0
     20236 MEMB     175      SAPE     H16R     HAL2     0.900000E-01   1.00800           0
     20237 MEMB     175      SAPE     H16S     HAL2     0.900000E-01   1.00800           0
     20238 MEMB     175      SAPE     C217     CTL2    -0.180000       12.0110           0
     20239 MEMB     175      SAPE     H17R     HAL2     0.900000E-01   1.00800           0
     20240 MEMB     175      SAPE     H17S     HAL2     0.900000E-01   1.00800           0
     20241 MEMB     175      SAPE     C218     CTL2    -0.180000       12.0110           0
     20242 MEMB     175      SAPE     H18R     HAL2     0.900000E-01   1.00800           0
     20243 MEMB     175      SAPE     H18S     HAL2     0.900000E-01   1.00800           0
     20244 MEMB     175      SAPE     C219     CTL2    -0.180000       12.0110           0
     20245 MEMB     175      SAPE     H19R     HAL2     0.900000E-01   1.00800           0
     20246 MEMB     175      SAPE     H19S     HAL2     0.900000E-01   1.00800           0
     20247 MEMB     175      SAPE     C220     CTL3    -0.270000       12.0110           0
     20248 MEMB     175      SAPE     H20R     HAL3     0.900000E-01   1.00800           0
     20249 MEMB     175      SAPE     H20S     HAL3     0.900000E-01   1.00800           0
     20250 MEMB     175      SAPE     H20T     HAL3     0.900000E-01   1.00800           0
     20251 MEMB     175      SAPE     C33      CTL2    -0.180000       12.0110           0
     20252 MEMB     175      SAPE     H3X      HAL2     0.900000E-01   1.00800           0
     20253 MEMB     175      SAPE     H3Y      HAL2     0.900000E-01   1.00800           0
     20254 MEMB     175      SAPE     C34      CTL2    -0.180000       12.0110           0
     20255 MEMB     175      SAPE     H4X      HAL2     0.900000E-01   1.00800           0
     20256 MEMB     175      SAPE     H4Y      HAL2     0.900000E-01   1.00800           0
     20257 MEMB     175      SAPE     C35      CTL2    -0.180000       12.0110           0
     20258 MEMB     175      SAPE     H5X      HAL2     0.900000E-01   1.00800           0
     20259 MEMB     175      SAPE     H5Y      HAL2     0.900000E-01   1.00800           0
     20260 MEMB     175      SAPE     C36      CTL2    -0.180000       12.0110           0
     20261 MEMB     175      SAPE     H6X      HAL2     0.900000E-01   1.00800           0
     20262 MEMB     175      SAPE     H6Y      HAL2     0.900000E-01   1.00800           0
     20263 MEMB     175      SAPE     C37      CTL2    -0.180000       12.0110           0
     20264 MEMB     175      SAPE     H7X      HAL2     0.900000E-01   1.00800           0
     20265 MEMB     175      SAPE     H7Y      HAL2     0.900000E-01   1.00800           0
     20266 MEMB     175      SAPE     C38      CTL2    -0.180000       12.0110           0
     20267 MEMB     175      SAPE     H8X      HAL2     0.900000E-01   1.00800           0
     20268 MEMB     175      SAPE     H8Y      HAL2     0.900000E-01   1.00800           0
     20269 MEMB     175      SAPE     C39      CTL2    -0.180000       12.0110           0
     20270 MEMB     175      SAPE     H9X      HAL2     0.900000E-01   1.00800           0
     20271 MEMB     175      SAPE     H9Y      HAL2     0.900000E-01   1.00800           0
     20272 MEMB     175      SAPE     C310     CTL2    -0.180000       12.0110           0
     20273 MEMB     175      SAPE     H10X     HAL2     0.900000E-01   1.00800           0
     20274 MEMB     175      SAPE     H10Y     HAL2     0.900000E-01   1.00800           0
     20275 MEMB     175      SAPE     C311     CTL2    -0.180000       12.0110           0
     20276 MEMB     175      SAPE     H11X     HAL2     0.900000E-01   1.00800           0
     20277 MEMB     175      SAPE     H11Y     HAL2     0.900000E-01   1.00800           0
     20278 MEMB     175      SAPE     C312     CTL2    -0.180000       12.0110           0
     20279 MEMB     175      SAPE     H12X     HAL2     0.900000E-01   1.00800           0
     20280 MEMB     175      SAPE     H12Y     HAL2     0.900000E-01   1.00800           0
     20281 MEMB     175      SAPE     C313     CTL2    -0.180000       12.0110           0
     20282 MEMB     175      SAPE     H13X     HAL2     0.900000E-01   1.00800           0
     20283 MEMB     175      SAPE     H13Y     HAL2     0.900000E-01   1.00800           0
     20284 MEMB     175      SAPE     C314     CTL2    -0.180000       12.0110           0
     20285 MEMB     175      SAPE     H14X     HAL2     0.900000E-01   1.00800           0
     20286 MEMB     175      SAPE     H14Y     HAL2     0.900000E-01   1.00800           0
     20287 MEMB     175      SAPE     C315     CTL2    -0.180000       12.0110           0
     20288 MEMB     175      SAPE     H15X     HAL2     0.900000E-01   1.00800           0
     20289 MEMB     175      SAPE     H15Y     HAL2     0.900000E-01   1.00800           0
     20290 MEMB     175      SAPE     C316     CTL2    -0.180000       12.0110           0
     20291 MEMB     175      SAPE     H16X     HAL2     0.900000E-01   1.00800           0
     20292 MEMB     175      SAPE     H16Y     HAL2     0.900000E-01   1.00800           0
     20293 MEMB     175      SAPE     C317     CTL2    -0.180000       12.0110           0
     20294 MEMB     175      SAPE     H17X     HAL2     0.900000E-01   1.00800           0
     20295 MEMB     175      SAPE     H17Y     HAL2     0.900000E-01   1.00800           0
     20296 MEMB     175      SAPE     C318     CTL3    -0.270000       12.0110           0
     20297 MEMB     175      SAPE     H18X     HAL3     0.900000E-01   1.00800           0
     20298 MEMB     175      SAPE     H18Y     HAL3     0.900000E-01   1.00800           0
     20299 MEMB     175      SAPE     H18Z     HAL3     0.900000E-01   1.00800           0
     20300 MEMB     176      CHL1     C3       CRL1     0.140000       12.0110           0
     20301 MEMB     176      CHL1     H3       HGA1     0.900000E-01   1.00800           0
     20302 MEMB     176      CHL1     O3       OHL     -0.660000       15.9994           0
     20303 MEMB     176      CHL1     H3'      HOL      0.430000       1.00800           0
     20304 MEMB     176      CHL1     C4       CRL2    -0.180000       12.0110           0
     20305 MEMB     176      CHL1     H4A      HGA2     0.900000E-01   1.00800           0
     20306 MEMB     176      CHL1     H4B      HGA2     0.900000E-01   1.00800           0
     20307 MEMB     176      CHL1     C5       CEL1      0.00000       12.0110           0
     20308 MEMB     176      CHL1     C6       CEL1    -0.150000       12.0110           0
     20309 MEMB     176      CHL1     H6       HEL1     0.150000       1.00800           0
     20310 MEMB     176      CHL1     C7       CRL2    -0.180000       12.0110           0
     20311 MEMB     176      CHL1     H7A      HGA2     0.900000E-01   1.00800           0
     20312 MEMB     176      CHL1     H7B      HGA2     0.900000E-01   1.00800           0
     20313 MEMB     176      CHL1     C8       CRL1    -0.900000E-01   12.0110           0
     20314 MEMB     176      CHL1     H8       HGA1     0.900000E-01   1.00800           0
     20315 MEMB     176      CHL1     C14      CRL1    -0.900000E-01   12.0110           0
     20316 MEMB     176      CHL1     H14      HGA1     0.900000E-01   1.00800           0
     20317 MEMB     176      CHL1     C15      CRL2    -0.180000       12.0110           0
     20318 MEMB     176      CHL1     H15A     HGA2     0.900000E-01   1.00800           0
     20319 MEMB     176      CHL1     H15B     HGA2     0.900000E-01   1.00800           0
     20320 MEMB     176      CHL1     C16      CRL2    -0.180000       12.0110           0
     20321 MEMB     176      CHL1     H16A     HGA2     0.900000E-01   1.00800           0
     20322 MEMB     176      CHL1     H16B     HGA2     0.900000E-01   1.00800           0
     20323 MEMB     176      CHL1     C17      CRL1    -0.900000E-01   12.0110           0
     20324 MEMB     176      CHL1     H17      HGA1     0.900000E-01   1.00800           0
     20325 MEMB     176      CHL1     C13      CRL1      0.00000       12.0110           0
     20326 MEMB     176      CHL1     C18      CTL3    -0.270000       12.0110           0
     20327 MEMB     176      CHL1     H18A     HAL3     0.900000E-01   1.00800           0
     20328 MEMB     176      CHL1     H18B     HAL3     0.900000E-01   1.00800           0
     20329 MEMB     176      CHL1     H18C     HAL3     0.900000E-01   1.00800           0
     20330 MEMB     176      CHL1     C12      CRL2    -0.180000       12.0110           0
     20331 MEMB     176      CHL1     H12A     HGA2     0.900000E-01   1.00800           0
     20332 MEMB     176      CHL1     H12B     HGA2     0.900000E-01   1.00800           0
     20333 MEMB     176      CHL1     C11      CRL2    -0.180000       12.0110           0
     20334 MEMB     176      CHL1     H11A     HGA2     0.900000E-01   1.00800           0
     20335 MEMB     176      CHL1     H11B     HGA2     0.900000E-01   1.00800           0
     20336 MEMB     176      CHL1     C9       CRL1    -0.900000E-01   12.0110           0
     20337 MEMB     176      CHL1     H9       HGA1     0.900000E-01   1.00800           0
     20338 MEMB     176      CHL1     C10      CRL1      0.00000       12.0110           0
     20339 MEMB     176      CHL1     C19      CTL3    -0.270000       12.0110           0
     20340 MEMB     176      CHL1     H19A     HAL3     0.900000E-01   1.00800           0
     20341 MEMB     176      CHL1     H19B     HAL3     0.900000E-01   1.00800           0
     20342 MEMB     176      CHL1     H19C     HAL3     0.900000E-01   1.00800           0
     20343 MEMB     176      CHL1     C1       CRL2    -0.180000       12.0110           0
     20344 MEMB     176      CHL1     H1A      HGA2     0.900000E-01   1.00800           0
     20345 MEMB     176      CHL1     H1B      HGA2     0.900000E-01   1.00800           0
     20346 MEMB     176      CHL1     C2       CRL2    -0.180000       12.0110           0
     20347 MEMB     176      CHL1     H2A      HGA2     0.900000E-01   1.00800           0
     20348 MEMB     176      CHL1     H2B      HGA2     0.900000E-01   1.00800           0
     20349 MEMB     176      CHL1     C20      CTL1    -0.900000E-01   12.0110           0
     20350 MEMB     176      CHL1     H20      HAL1     0.900000E-01   1.00800           0
     20351 MEMB     176      CHL1     C21      CTL3    -0.270000       12.0110           0
     20352 MEMB     176      CHL1     H21A     HAL3     0.900000E-01   1.00800           0
     20353 MEMB     176      CHL1     H21B     HAL3     0.900000E-01   1.00800           0
     20354 MEMB     176      CHL1     H21C     HAL3     0.900000E-01   1.00800           0
     20355 MEMB     176      CHL1     C22      CTL2    -0.180000       12.0110           0
     20356 MEMB     176      CHL1     H22A     HAL2     0.900000E-01   1.00800           0
     20357 MEMB     176      CHL1     H22B     HAL2     0.900000E-01   1.00800           0
     20358 MEMB     176      CHL1     C23      CTL2    -0.180000       12.0110           0
     20359 MEMB     176      CHL1     H23A     HAL2     0.900000E-01   1.00800           0
     20360 MEMB     176      CHL1     H23B     HAL2     0.900000E-01   1.00800           0
     20361 MEMB     176      CHL1     C24      CTL2    -0.180000       12.0110           0
     20362 MEMB     176      CHL1     H24A     HAL2     0.900000E-01   1.00800           0
     20363 MEMB     176      CHL1     H24B     HAL2     0.900000E-01   1.00800           0
     20364 MEMB     176      CHL1     C25      CTL1    -0.900000E-01   12.0110           0
     20365 MEMB     176      CHL1     H25      HAL1     0.900000E-01   1.00800           0
     20366 MEMB     176      CHL1     C26      CTL3    -0.270000       12.0110           0
     20367 MEMB     176      CHL1     H26A     HAL3     0.900000E-01   1.00800           0
     20368 MEMB     176      CHL1     H26B     HAL3     0.900000E-01   1.00800           0
     20369 MEMB     176      CHL1     H26C     HAL3     0.900000E-01   1.00800           0
     20370 MEMB     176      CHL1     C27      CTL3    -0.270000       12.0110           0
     20371 MEMB     176      CHL1     H27A     HAL3     0.900000E-01   1.00800           0
     20372 MEMB     176      CHL1     H27B     HAL3     0.900000E-01   1.00800           0
     20373 MEMB     176      CHL1     H27C     HAL3     0.900000E-01   1.00800           0
     20374 MEMB     177      OSM      N        NTL     -0.600000       14.0070           0
     20375 MEMB     177      OSM      C15      CTL5    -0.350000       12.0110           0
     20376 MEMB     177      OSM      H15A     HL       0.250000       1.00800           0
     20377 MEMB     177      OSM      H15B     HL       0.250000       1.00800           0
     20378 MEMB     177      OSM      H15C     HL       0.250000       1.00800           0
     20379 MEMB     177      OSM      C14      CTL5    -0.350000       12.0110           0
     20380 MEMB     177      OSM      H14A     HL       0.250000       1.00800           0
     20381 MEMB     177      OSM      H14B     HL       0.250000       1.00800           0
     20382 MEMB     177      OSM      H14C     HL       0.250000       1.00800           0
     20383 MEMB     177      OSM      C13      CTL5    -0.350000       12.0110           0
     20384 MEMB     177      OSM      H13A     HL       0.250000       1.00800           0
     20385 MEMB     177      OSM      H13B     HL       0.250000       1.00800           0
     20386 MEMB     177      OSM      H13C     HL       0.250000       1.00800           0
     20387 MEMB     177      OSM      C12      CTL2    -0.100000       12.0110           0
     20388 MEMB     177      OSM      H12A     HL       0.250000       1.00800           0
     20389 MEMB     177      OSM      H12B     HL       0.250000       1.00800           0
     20390 MEMB     177      OSM      C11      CTL2    -0.800000E-01   12.0110           0
     20391 MEMB     177      OSM      H11A     HAL2     0.900000E-01   1.00800           0
     20392 MEMB     177      OSM      H11B     HAL2     0.900000E-01   1.00800           0
     20393 MEMB     177      OSM      P        PL        1.50000       30.9740           0
     20394 MEMB     177      OSM      O13      O2L     -0.780000       15.9994           0
     20395 MEMB     177      OSM      O14      O2L     -0.780000       15.9994           0
     20396 MEMB     177      OSM      O11      OSLP    -0.570000       15.9994           0
     20397 MEMB     177      OSM      O12      OSLP    -0.570000       15.9994           0
     20398 MEMB     177      OSM      C1S      CTL2    -0.800000E-01   12.0110           0
     20399 MEMB     177      OSM      H1S      HAL2     0.900000E-01   1.00800           0
     20400 MEMB     177      OSM      H1T      HAL2     0.900000E-01   1.00800           0
     20401 MEMB     177      OSM      NF       NHL     -0.700000       14.0070           0
     20402 MEMB     177      OSM      HNF      H        0.350000       1.00800           0
     20403 MEMB     177      OSM      C2S      CTL1     0.300000       12.0110           0
     20404 MEMB     177      OSM      H2S      HAL1     0.500000E-01   1.00800           0
     20405 MEMB     177      OSM      C3S      CTO1     0.500000       12.0110           0
     20406 MEMB     177      OSM      H3S      HAL1    -0.110000       1.00800           0
     20407 MEMB     177      OSM      O3       OHL     -0.690000       15.9994           0
     20408 MEMB     177      OSM      HO3      HOL      0.300000       1.00800           0
     20409 MEMB     177      OSM      C4S      CEL3    -0.150000       12.0110           0
     20410 MEMB     177      OSM      H4S      HEL1     0.150000       1.00800           0
     20411 MEMB     177      OSM      C5S      CEL3    -0.150000       12.0110           0
     20412 MEMB     177      OSM      H5S      HEL1     0.150000       1.00800           0
     20413 MEMB     177      OSM      C6S      CTL2    -0.180000       12.0110           0
     20414 MEMB     177      OSM      H6S      HAL2     0.900000E-01   1.00800           0
     20415 MEMB     177      OSM      H6T      HAL2     0.900000E-01   1.00800           0
     20416 MEMB     177      OSM      C7S      CTL2    -0.180000       12.0110           0
     20417 MEMB     177      OSM      H7S      HAL2     0.900000E-01   1.00800           0
     20418 MEMB     177      OSM      H7T      HAL2     0.900000E-01   1.00800           0
     20419 MEMB     177      OSM      C8S      CTL2    -0.180000       12.0110           0
     20420 MEMB     177      OSM      H8S      HAL2     0.900000E-01   1.00800           0
     20421 MEMB     177      OSM      H8T      HAL2     0.900000E-01   1.00800           0
     20422 MEMB     177      OSM      C9S      CTL2    -0.180000       12.0110           0
     20423 MEMB     177      OSM      H9S      HAL2     0.900000E-01   1.00800           0
     20424 MEMB     177      OSM      H9T      HAL2     0.900000E-01   1.00800           0
     20425 MEMB     177      OSM      C10S     CTL2    -0.180000       12.0110           0
     20426 MEMB     177      OSM      H10S     HAL2     0.900000E-01   1.00800           0
     20427 MEMB     177      OSM      H10T     HAL2     0.900000E-01   1.00800           0
     20428 MEMB     177      OSM      C11S     CTL2    -0.180000       12.0110           0
     20429 MEMB     177      OSM      H11S     HAL2     0.900000E-01   1.00800           0
     20430 MEMB     177      OSM      H11T     HAL2     0.900000E-01   1.00800           0
     20431 MEMB     177      OSM      C12S     CTL2    -0.180000       12.0110           0
     20432 MEMB     177      OSM      H12S     HAL2     0.900000E-01   1.00800           0
     20433 MEMB     177      OSM      H12T     HAL2     0.900000E-01   1.00800           0
     20434 MEMB     177      OSM      C13S     CTL2    -0.180000       12.0110           0
     20435 MEMB     177      OSM      H13S     HAL2     0.900000E-01   1.00800           0
     20436 MEMB     177      OSM      H13T     HAL2     0.900000E-01   1.00800           0
     20437 MEMB     177      OSM      C14S     CTL2    -0.180000       12.0110           0
     20438 MEMB     177      OSM      H14S     HAL2     0.900000E-01   1.00800           0
     20439 MEMB     177      OSM      H14T     HAL2     0.900000E-01   1.00800           0
     20440 MEMB     177      OSM      C15S     CTL2    -0.180000       12.0110           0
     20441 MEMB     177      OSM      H15S     HAL2     0.900000E-01   1.00800           0
     20442 MEMB     177      OSM      H15T     HAL2     0.900000E-01   1.00800           0
     20443 MEMB     177      OSM      C16S     CTL2    -0.180000       12.0110           0
     20444 MEMB     177      OSM      H16S     HAL2     0.900000E-01   1.00800           0
     20445 MEMB     177      OSM      H16T     HAL2     0.900000E-01   1.00800           0
     20446 MEMB     177      OSM      C17S     CTL2    -0.180000       12.0110           0
     20447 MEMB     177      OSM      H17S     HAL2     0.900000E-01   1.00800           0
     20448 MEMB     177      OSM      H17T     HAL2     0.900000E-01   1.00800           0
     20449 MEMB     177      OSM      C18S     CTL3    -0.270000       12.0110           0
     20450 MEMB     177      OSM      H18S     HAL3     0.900000E-01   1.00800           0
     20451 MEMB     177      OSM      H18T     HAL3     0.900000E-01   1.00800           0
     20452 MEMB     177      OSM      H18U     HAL3     0.900000E-01   1.00800           0
     20453 MEMB     177      OSM      C1F      C        0.550000       12.0110           0
     20454 MEMB     177      OSM      OF       O       -0.600000       15.9994           0
     20455 MEMB     177      OSM      C2F      CTL2    -0.700000E-01   12.0110           0
     20456 MEMB     177      OSM      H2F      HAL2     0.600000E-01   1.00800           0
     20457 MEMB     177      OSM      H2G      HAL2     0.600000E-01   1.00800           0
     20458 MEMB     177      OSM      C3F      CTL2    -0.180000       12.0110           0
     20459 MEMB     177      OSM      H3F      HAL2     0.900000E-01   1.00800           0
     20460 MEMB     177      OSM      H3G      HAL2     0.900000E-01   1.00800           0
     20461 MEMB     177      OSM      C4F      CTL2    -0.180000       12.0110           0
     20462 MEMB     177      OSM      H4F      HAL2     0.900000E-01   1.00800           0
     20463 MEMB     177      OSM      H4G      HAL2     0.900000E-01   1.00800           0
     20464 MEMB     177      OSM      C5F      CTL2    -0.180000       12.0110           0
     20465 MEMB     177      OSM      H5F      HAL2     0.900000E-01   1.00800           0
     20466 MEMB     177      OSM      H5G      HAL2     0.900000E-01   1.00800           0
     20467 MEMB     177      OSM      C6F      CTL2    -0.180000       12.0110           0
     20468 MEMB     177      OSM      H6F      HAL2     0.900000E-01   1.00800           0
     20469 MEMB     177      OSM      H6G      HAL2     0.900000E-01   1.00800           0
     20470 MEMB     177      OSM      C7F      CTL2    -0.180000       12.0110           0
     20471 MEMB     177      OSM      H7F      HAL2     0.900000E-01   1.00800           0
     20472 MEMB     177      OSM      H7G      HAL2     0.900000E-01   1.00800           0
     20473 MEMB     177      OSM      C8F      CTL2    -0.180000       12.0110           0
     20474 MEMB     177      OSM      H8F      HAL2     0.900000E-01   1.00800           0
     20475 MEMB     177      OSM      H8G      HAL2     0.900000E-01   1.00800           0
     20476 MEMB     177      OSM      C9F      CEL1    -0.150000       12.0110           0
     20477 MEMB     177      OSM      H9F      HEL1     0.150000       1.00800           0
     20478 MEMB     177      OSM      C10F     CEL1    -0.150000       12.0110           0
     20479 MEMB     177      OSM      H10F     HEL1     0.150000       1.00800           0
     20480 MEMB     177      OSM      C11F     CTL2    -0.180000       12.0110           0
     20481 MEMB     177      OSM      H11F     HAL2     0.900000E-01   1.00800           0
     20482 MEMB     177      OSM      H11G     HAL2     0.900000E-01   1.00800           0
     20483 MEMB     177      OSM      C12F     CTL2    -0.180000       12.0110           0
     20484 MEMB     177      OSM      H12F     HAL2     0.900000E-01   1.00800           0
     20485 MEMB     177      OSM      H12G     HAL2     0.900000E-01   1.00800           0
     20486 MEMB     177      OSM      C13F     CTL2    -0.180000       12.0110           0
     20487 MEMB     177      OSM      H13F     HAL2     0.900000E-01   1.00800           0
     20488 MEMB     177      OSM      H13G     HAL2     0.900000E-01   1.00800           0
     20489 MEMB     177      OSM      C14F     CTL2    -0.180000       12.0110           0
     20490 MEMB     177      OSM      H14F     HAL2     0.900000E-01   1.00800           0
     20491 MEMB     177      OSM      H14G     HAL2     0.900000E-01   1.00800           0
     20492 MEMB     177      OSM      C15F     CTL2    -0.180000       12.0110           0
     20493 MEMB     177      OSM      H15F     HAL2     0.900000E-01   1.00800           0
     20494 MEMB     177      OSM      H15G     HAL2     0.900000E-01   1.00800           0
     20495 MEMB     177      OSM      C16F     CTL2    -0.180000       12.0110           0
     20496 MEMB     177      OSM      H16F     HAL2     0.900000E-01   1.00800           0
     20497 MEMB     177      OSM      H16G     HAL2     0.900000E-01   1.00800           0
     20498 MEMB     177      OSM      C17F     CTL2    -0.180000       12.0110           0
     20499 MEMB     177      OSM      H17F     HAL2     0.900000E-01   1.00800           0
     20500 MEMB     177      OSM      H17G     HAL2     0.900000E-01   1.00800           0
     20501 MEMB     177      OSM      C18F     CTL3    -0.270000       12.0110           0
     20502 MEMB     177      OSM      H18F     HAL3     0.900000E-01   1.00800           0
     20503 MEMB     177      OSM      H18G     HAL3     0.900000E-01   1.00800           0
     20504 MEMB     177      OSM      H18H     HAL3     0.900000E-01   1.00800           0
     20505 MEMB     178      OSM      N        NTL     -0.600000       14.0070           0
     20506 MEMB     178      OSM      C15      CTL5    -0.350000       12.0110           0
     20507 MEMB     178      OSM      H15A     HL       0.250000       1.00800           0
     20508 MEMB     178      OSM      H15B     HL       0.250000       1.00800           0
     20509 MEMB     178      OSM      H15C     HL       0.250000       1.00800           0
     20510 MEMB     178      OSM      C14      CTL5    -0.350000       12.0110           0
     20511 MEMB     178      OSM      H14A     HL       0.250000       1.00800           0
     20512 MEMB     178      OSM      H14B     HL       0.250000       1.00800           0
     20513 MEMB     178      OSM      H14C     HL       0.250000       1.00800           0
     20514 MEMB     178      OSM      C13      CTL5    -0.350000       12.0110           0
     20515 MEMB     178      OSM      H13A     HL       0.250000       1.00800           0
     20516 MEMB     178      OSM      H13B     HL       0.250000       1.00800           0
     20517 MEMB     178      OSM      H13C     HL       0.250000       1.00800           0
     20518 MEMB     178      OSM      C12      CTL2    -0.100000       12.0110           0
     20519 MEMB     178      OSM      H12A     HL       0.250000       1.00800           0
     20520 MEMB     178      OSM      H12B     HL       0.250000       1.00800           0
     20521 MEMB     178      OSM      C11      CTL2    -0.800000E-01   12.0110           0
     20522 MEMB     178      OSM      H11A     HAL2     0.900000E-01   1.00800           0
     20523 MEMB     178      OSM      H11B     HAL2     0.900000E-01   1.00800           0
     20524 MEMB     178      OSM      P        PL        1.50000       30.9740           0
     20525 MEMB     178      OSM      O13      O2L     -0.780000       15.9994           0
     20526 MEMB     178      OSM      O14      O2L     -0.780000       15.9994           0
     20527 MEMB     178      OSM      O11      OSLP    -0.570000       15.9994           0
     20528 MEMB     178      OSM      O12      OSLP    -0.570000       15.9994           0
     20529 MEMB     178      OSM      C1S      CTL2    -0.800000E-01   12.0110           0
     20530 MEMB     178      OSM      H1S      HAL2     0.900000E-01   1.00800           0
     20531 MEMB     178      OSM      H1T      HAL2     0.900000E-01   1.00800           0
     20532 MEMB     178      OSM      NF       NHL     -0.700000       14.0070           0
     20533 MEMB     178      OSM      HNF      H        0.350000       1.00800           0
     20534 MEMB     178      OSM      C2S      CTL1     0.300000       12.0110           0
     20535 MEMB     178      OSM      H2S      HAL1     0.500000E-01   1.00800           0
     20536 MEMB     178      OSM      C3S      CTO1     0.500000       12.0110           0
     20537 MEMB     178      OSM      H3S      HAL1    -0.110000       1.00800           0
     20538 MEMB     178      OSM      O3       OHL     -0.690000       15.9994           0
     20539 MEMB     178      OSM      HO3      HOL      0.300000       1.00800           0
     20540 MEMB     178      OSM      C4S      CEL3    -0.150000       12.0110           0
     20541 MEMB     178      OSM      H4S      HEL1     0.150000       1.00800           0
     20542 MEMB     178      OSM      C5S      CEL3    -0.150000       12.0110           0
     20543 MEMB     178      OSM      H5S      HEL1     0.150000       1.00800           0
     20544 MEMB     178      OSM      C6S      CTL2    -0.180000       12.0110           0
     20545 MEMB     178      OSM      H6S      HAL2     0.900000E-01   1.00800           0
     20546 MEMB     178      OSM      H6T      HAL2     0.900000E-01   1.00800           0
     20547 MEMB     178      OSM      C7S      CTL2    -0.180000       12.0110           0
     20548 MEMB     178      OSM      H7S      HAL2     0.900000E-01   1.00800           0
     20549 MEMB     178      OSM      H7T      HAL2     0.900000E-01   1.00800           0
     20550 MEMB     178      OSM      C8S      CTL2    -0.180000       12.0110           0
     20551 MEMB     178      OSM      H8S      HAL2     0.900000E-01   1.00800           0
     20552 MEMB     178      OSM      H8T      HAL2     0.900000E-01   1.00800           0
     20553 MEMB     178      OSM      C9S      CTL2    -0.180000       12.0110           0
     20554 MEMB     178      OSM      H9S      HAL2     0.900000E-01   1.00800           0
     20555 MEMB     178      OSM      H9T      HAL2     0.900000E-01   1.00800           0
     20556 MEMB     178      OSM      C10S     CTL2    -0.180000       12.0110           0
     20557 MEMB     178      OSM      H10S     HAL2     0.900000E-01   1.00800           0
     20558 MEMB     178      OSM      H10T     HAL2     0.900000E-01   1.00800           0
     20559 MEMB     178      OSM      C11S     CTL2    -0.180000       12.0110           0
     20560 MEMB     178      OSM      H11S     HAL2     0.900000E-01   1.00800           0
     20561 MEMB     178      OSM      H11T     HAL2     0.900000E-01   1.00800           0
     20562 MEMB     178      OSM      C12S     CTL2    -0.180000       12.0110           0
     20563 MEMB     178      OSM      H12S     HAL2     0.900000E-01   1.00800           0
     20564 MEMB     178      OSM      H12T     HAL2     0.900000E-01   1.00800           0
     20565 MEMB     178      OSM      C13S     CTL2    -0.180000       12.0110           0
     20566 MEMB     178      OSM      H13S     HAL2     0.900000E-01   1.00800           0
     20567 MEMB     178      OSM      H13T     HAL2     0.900000E-01   1.00800           0
     20568 MEMB     178      OSM      C14S     CTL2    -0.180000       12.0110           0
     20569 MEMB     178      OSM      H14S     HAL2     0.900000E-01   1.00800           0
     20570 MEMB     178      OSM      H14T     HAL2     0.900000E-01   1.00800           0
     20571 MEMB     178      OSM      C15S     CTL2    -0.180000       12.0110           0
     20572 MEMB     178      OSM      H15S     HAL2     0.900000E-01   1.00800           0
     20573 MEMB     178      OSM      H15T     HAL2     0.900000E-01   1.00800           0
     20574 MEMB     178      OSM      C16S     CTL2    -0.180000       12.0110           0
     20575 MEMB     178      OSM      H16S     HAL2     0.900000E-01   1.00800           0
     20576 MEMB     178      OSM      H16T     HAL2     0.900000E-01   1.00800           0
     20577 MEMB     178      OSM      C17S     CTL2    -0.180000       12.0110           0
     20578 MEMB     178      OSM      H17S     HAL2     0.900000E-01   1.00800           0
     20579 MEMB     178      OSM      H17T     HAL2     0.900000E-01   1.00800           0
     20580 MEMB     178      OSM      C18S     CTL3    -0.270000       12.0110           0
     20581 MEMB     178      OSM      H18S     HAL3     0.900000E-01   1.00800           0
     20582 MEMB     178      OSM      H18T     HAL3     0.900000E-01   1.00800           0
     20583 MEMB     178      OSM      H18U     HAL3     0.900000E-01   1.00800           0
     20584 MEMB     178      OSM      C1F      C        0.550000       12.0110           0
     20585 MEMB     178      OSM      OF       O       -0.600000       15.9994           0
     20586 MEMB     178      OSM      C2F      CTL2    -0.700000E-01   12.0110           0
     20587 MEMB     178      OSM      H2F      HAL2     0.600000E-01   1.00800           0
     20588 MEMB     178      OSM      H2G      HAL2     0.600000E-01   1.00800           0
     20589 MEMB     178      OSM      C3F      CTL2    -0.180000       12.0110           0
     20590 MEMB     178      OSM      H3F      HAL2     0.900000E-01   1.00800           0
     20591 MEMB     178      OSM      H3G      HAL2     0.900000E-01   1.00800           0
     20592 MEMB     178      OSM      C4F      CTL2    -0.180000       12.0110           0
     20593 MEMB     178      OSM      H4F      HAL2     0.900000E-01   1.00800           0
     20594 MEMB     178      OSM      H4G      HAL2     0.900000E-01   1.00800           0
     20595 MEMB     178      OSM      C5F      CTL2    -0.180000       12.0110           0
     20596 MEMB     178      OSM      H5F      HAL2     0.900000E-01   1.00800           0
     20597 MEMB     178      OSM      H5G      HAL2     0.900000E-01   1.00800           0
     20598 MEMB     178      OSM      C6F      CTL2    -0.180000       12.0110           0
     20599 MEMB     178      OSM      H6F      HAL2     0.900000E-01   1.00800           0
     20600 MEMB     178      OSM      H6G      HAL2     0.900000E-01   1.00800           0
     20601 MEMB     178      OSM      C7F      CTL2    -0.180000       12.0110           0
     20602 MEMB     178      OSM      H7F      HAL2     0.900000E-01   1.00800           0
     20603 MEMB     178      OSM      H7G      HAL2     0.900000E-01   1.00800           0
     20604 MEMB     178      OSM      C8F      CTL2    -0.180000       12.0110           0
     20605 MEMB     178      OSM      H8F      HAL2     0.900000E-01   1.00800           0
     20606 MEMB     178      OSM      H8G      HAL2     0.900000E-01   1.00800           0
     20607 MEMB     178      OSM      C9F      CEL1    -0.150000       12.0110           0
     20608 MEMB     178      OSM      H9F      HEL1     0.150000       1.00800           0
     20609 MEMB     178      OSM      C10F     CEL1    -0.150000       12.0110           0
     20610 MEMB     178      OSM      H10F     HEL1     0.150000       1.00800           0
     20611 MEMB     178      OSM      C11F     CTL2    -0.180000       12.0110           0
     20612 MEMB     178      OSM      H11F     HAL2     0.900000E-01   1.00800           0
     20613 MEMB     178      OSM      H11G     HAL2     0.900000E-01   1.00800           0
     20614 MEMB     178      OSM      C12F     CTL2    -0.180000       12.0110           0
     20615 MEMB     178      OSM      H12F     HAL2     0.900000E-01   1.00800           0
     20616 MEMB     178      OSM      H12G     HAL2     0.900000E-01   1.00800           0
     20617 MEMB     178      OSM      C13F     CTL2    -0.180000       12.0110           0
     20618 MEMB     178      OSM      H13F     HAL2     0.900000E-01   1.00800           0
     20619 MEMB     178      OSM      H13G     HAL2     0.900000E-01   1.00800           0
     20620 MEMB     178      OSM      C14F     CTL2    -0.180000       12.0110           0
     20621 MEMB     178      OSM      H14F     HAL2     0.900000E-01   1.00800           0
     20622 MEMB     178      OSM      H14G     HAL2     0.900000E-01   1.00800           0
     20623 MEMB     178      OSM      C15F     CTL2    -0.180000       12.0110           0
     20624 MEMB     178      OSM      H15F     HAL2     0.900000E-01   1.00800           0
     20625 MEMB     178      OSM      H15G     HAL2     0.900000E-01   1.00800           0
     20626 MEMB     178      OSM      C16F     CTL2    -0.180000       12.0110           0
     20627 MEMB     178      OSM      H16F     HAL2     0.900000E-01   1.00800           0
     20628 MEMB     178      OSM      H16G     HAL2     0.900000E-01   1.00800           0
     20629 MEMB     178      OSM      C17F     CTL2    -0.180000       12.0110           0
     20630 MEMB     178      OSM      H17F     HAL2     0.900000E-01   1.00800           0
     20631 MEMB     178      OSM      H17G     HAL2     0.900000E-01   1.00800           0
     20632 MEMB     178      OSM      C18F     CTL3    -0.270000       12.0110           0
     20633 MEMB     178      OSM      H18F     HAL3     0.900000E-01   1.00800           0
     20634 MEMB     178      OSM      H18G     HAL3     0.900000E-01   1.00800           0
     20635 MEMB     178      OSM      H18H     HAL3     0.900000E-01   1.00800           0
     20636 MEMB     179      CHL1     C3       CRL1     0.140000       12.0110           0
     20637 MEMB     179      CHL1     H3       HGA1     0.900000E-01   1.00800           0
     20638 MEMB     179      CHL1     O3       OHL     -0.660000       15.9994           0
     20639 MEMB     179      CHL1     H3'      HOL      0.430000       1.00800           0
     20640 MEMB     179      CHL1     C4       CRL2    -0.180000       12.0110           0
     20641 MEMB     179      CHL1     H4A      HGA2     0.900000E-01   1.00800           0
     20642 MEMB     179      CHL1     H4B      HGA2     0.900000E-01   1.00800           0
     20643 MEMB     179      CHL1     C5       CEL1      0.00000       12.0110           0
     20644 MEMB     179      CHL1     C6       CEL1    -0.150000       12.0110           0
     20645 MEMB     179      CHL1     H6       HEL1     0.150000       1.00800           0
     20646 MEMB     179      CHL1     C7       CRL2    -0.180000       12.0110           0
     20647 MEMB     179      CHL1     H7A      HGA2     0.900000E-01   1.00800           0
     20648 MEMB     179      CHL1     H7B      HGA2     0.900000E-01   1.00800           0
     20649 MEMB     179      CHL1     C8       CRL1    -0.900000E-01   12.0110           0
     20650 MEMB     179      CHL1     H8       HGA1     0.900000E-01   1.00800           0
     20651 MEMB     179      CHL1     C14      CRL1    -0.900000E-01   12.0110           0
     20652 MEMB     179      CHL1     H14      HGA1     0.900000E-01   1.00800           0
     20653 MEMB     179      CHL1     C15      CRL2    -0.180000       12.0110           0
     20654 MEMB     179      CHL1     H15A     HGA2     0.900000E-01   1.00800           0
     20655 MEMB     179      CHL1     H15B     HGA2     0.900000E-01   1.00800           0
     20656 MEMB     179      CHL1     C16      CRL2    -0.180000       12.0110           0
     20657 MEMB     179      CHL1     H16A     HGA2     0.900000E-01   1.00800           0
     20658 MEMB     179      CHL1     H16B     HGA2     0.900000E-01   1.00800           0
     20659 MEMB     179      CHL1     C17      CRL1    -0.900000E-01   12.0110           0
     20660 MEMB     179      CHL1     H17      HGA1     0.900000E-01   1.00800           0
     20661 MEMB     179      CHL1     C13      CRL1      0.00000       12.0110           0
     20662 MEMB     179      CHL1     C18      CTL3    -0.270000       12.0110           0
     20663 MEMB     179      CHL1     H18A     HAL3     0.900000E-01   1.00800           0
     20664 MEMB     179      CHL1     H18B     HAL3     0.900000E-01   1.00800           0
     20665 MEMB     179      CHL1     H18C     HAL3     0.900000E-01   1.00800           0
     20666 MEMB     179      CHL1     C12      CRL2    -0.180000       12.0110           0
     20667 MEMB     179      CHL1     H12A     HGA2     0.900000E-01   1.00800           0
     20668 MEMB     179      CHL1     H12B     HGA2     0.900000E-01   1.00800           0
     20669 MEMB     179      CHL1     C11      CRL2    -0.180000       12.0110           0
     20670 MEMB     179      CHL1     H11A     HGA2     0.900000E-01   1.00800           0
     20671 MEMB     179      CHL1     H11B     HGA2     0.900000E-01   1.00800           0
     20672 MEMB     179      CHL1     C9       CRL1    -0.900000E-01   12.0110           0
     20673 MEMB     179      CHL1     H9       HGA1     0.900000E-01   1.00800           0
     20674 MEMB     179      CHL1     C10      CRL1      0.00000       12.0110           0
     20675 MEMB     179      CHL1     C19      CTL3    -0.270000       12.0110           0
     20676 MEMB     179      CHL1     H19A     HAL3     0.900000E-01   1.00800           0
     20677 MEMB     179      CHL1     H19B     HAL3     0.900000E-01   1.00800           0
     20678 MEMB     179      CHL1     H19C     HAL3     0.900000E-01   1.00800           0
     20679 MEMB     179      CHL1     C1       CRL2    -0.180000       12.0110           0
     20680 MEMB     179      CHL1     H1A      HGA2     0.900000E-01   1.00800           0
     20681 MEMB     179      CHL1     H1B      HGA2     0.900000E-01   1.00800           0
     20682 MEMB     179      CHL1     C2       CRL2    -0.180000       12.0110           0
     20683 MEMB     179      CHL1     H2A      HGA2     0.900000E-01   1.00800           0
     20684 MEMB     179      CHL1     H2B      HGA2     0.900000E-01   1.00800           0
     20685 MEMB     179      CHL1     C20      CTL1    -0.900000E-01   12.0110           0
     20686 MEMB     179      CHL1     H20      HAL1     0.900000E-01   1.00800           0
     20687 MEMB     179      CHL1     C21      CTL3    -0.270000       12.0110           0
     20688 MEMB     179      CHL1     H21A     HAL3     0.900000E-01   1.00800           0
     20689 MEMB     179      CHL1     H21B     HAL3     0.900000E-01   1.00800           0
     20690 MEMB     179      CHL1     H21C     HAL3     0.900000E-01   1.00800           0
     20691 MEMB     179      CHL1     C22      CTL2    -0.180000       12.0110           0
     20692 MEMB     179      CHL1     H22A     HAL2     0.900000E-01   1.00800           0
     20693 MEMB     179      CHL1     H22B     HAL2     0.900000E-01   1.00800           0
     20694 MEMB     179      CHL1     C23      CTL2    -0.180000       12.0110           0
     20695 MEMB     179      CHL1     H23A     HAL2     0.900000E-01   1.00800           0
     20696 MEMB     179      CHL1     H23B     HAL2     0.900000E-01   1.00800           0
     20697 MEMB     179      CHL1     C24      CTL2    -0.180000       12.0110           0
     20698 MEMB     179      CHL1     H24A     HAL2     0.900000E-01   1.00800           0
     20699 MEMB     179      CHL1     H24B     HAL2     0.900000E-01   1.00800           0
     20700 MEMB     179      CHL1     C25      CTL1    -0.900000E-01   12.0110           0
     20701 MEMB     179      CHL1     H25      HAL1     0.900000E-01   1.00800           0
     20702 MEMB     179      CHL1     C26      CTL3    -0.270000       12.0110           0
     20703 MEMB     179      CHL1     H26A     HAL3     0.900000E-01   1.00800           0
     20704 MEMB     179      CHL1     H26B     HAL3     0.900000E-01   1.00800           0
     20705 MEMB     179      CHL1     H26C     HAL3     0.900000E-01   1.00800           0
     20706 MEMB     179      CHL1     C27      CTL3    -0.270000       12.0110           0
     20707 MEMB     179      CHL1     H27A     HAL3     0.900000E-01   1.00800           0
     20708 MEMB     179      CHL1     H27B     HAL3     0.900000E-01   1.00800           0
     20709 MEMB     179      CHL1     H27C     HAL3     0.900000E-01   1.00800           0
     20710 MEMB     180      CHL1     C3       CRL1     0.140000       12.0110           0
     20711 MEMB     180      CHL1     H3       HGA1     0.900000E-01   1.00800           0
     20712 MEMB     180      CHL1     O3       OHL     -0.660000       15.9994           0
     20713 MEMB     180      CHL1     H3'      HOL      0.430000       1.00800           0
     20714 MEMB     180      CHL1     C4       CRL2    -0.180000       12.0110           0
     20715 MEMB     180      CHL1     H4A      HGA2     0.900000E-01   1.00800           0
     20716 MEMB     180      CHL1     H4B      HGA2     0.900000E-01   1.00800           0
     20717 MEMB     180      CHL1     C5       CEL1      0.00000       12.0110           0
     20718 MEMB     180      CHL1     C6       CEL1    -0.150000       12.0110           0
     20719 MEMB     180      CHL1     H6       HEL1     0.150000       1.00800           0
     20720 MEMB     180      CHL1     C7       CRL2    -0.180000       12.0110           0
     20721 MEMB     180      CHL1     H7A      HGA2     0.900000E-01   1.00800           0
     20722 MEMB     180      CHL1     H7B      HGA2     0.900000E-01   1.00800           0
     20723 MEMB     180      CHL1     C8       CRL1    -0.900000E-01   12.0110           0
     20724 MEMB     180      CHL1     H8       HGA1     0.900000E-01   1.00800           0
     20725 MEMB     180      CHL1     C14      CRL1    -0.900000E-01   12.0110           0
     20726 MEMB     180      CHL1     H14      HGA1     0.900000E-01   1.00800           0
     20727 MEMB     180      CHL1     C15      CRL2    -0.180000       12.0110           0
     20728 MEMB     180      CHL1     H15A     HGA2     0.900000E-01   1.00800           0
     20729 MEMB     180      CHL1     H15B     HGA2     0.900000E-01   1.00800           0
     20730 MEMB     180      CHL1     C16      CRL2    -0.180000       12.0110           0
     20731 MEMB     180      CHL1     H16A     HGA2     0.900000E-01   1.00800           0
     20732 MEMB     180      CHL1     H16B     HGA2     0.900000E-01   1.00800           0
     20733 MEMB     180      CHL1     C17      CRL1    -0.900000E-01   12.0110           0
     20734 MEMB     180      CHL1     H17      HGA1     0.900000E-01   1.00800           0
     20735 MEMB     180      CHL1     C13      CRL1      0.00000       12.0110           0
     20736 MEMB     180      CHL1     C18      CTL3    -0.270000       12.0110           0
     20737 MEMB     180      CHL1     H18A     HAL3     0.900000E-01   1.00800           0
     20738 MEMB     180      CHL1     H18B     HAL3     0.900000E-01   1.00800           0
     20739 MEMB     180      CHL1     H18C     HAL3     0.900000E-01   1.00800           0
     20740 MEMB     180      CHL1     C12      CRL2    -0.180000       12.0110           0
     20741 MEMB     180      CHL1     H12A     HGA2     0.900000E-01   1.00800           0
     20742 MEMB     180      CHL1     H12B     HGA2     0.900000E-01   1.00800           0
     20743 MEMB     180      CHL1     C11      CRL2    -0.180000       12.0110           0
     20744 MEMB     180      CHL1     H11A     HGA2     0.900000E-01   1.00800           0
     20745 MEMB     180      CHL1     H11B     HGA2     0.900000E-01   1.00800           0
     20746 MEMB     180      CHL1     C9       CRL1    -0.900000E-01   12.0110           0
     20747 MEMB     180      CHL1     H9       HGA1     0.900000E-01   1.00800           0
     20748 MEMB     180      CHL1     C10      CRL1      0.00000       12.0110           0
     20749 MEMB     180      CHL1     C19      CTL3    -0.270000       12.0110           0
     20750 MEMB     180      CHL1     H19A     HAL3     0.900000E-01   1.00800           0
     20751 MEMB     180      CHL1     H19B     HAL3     0.900000E-01   1.00800           0
     20752 MEMB     180      CHL1     H19C     HAL3     0.900000E-01   1.00800           0
     20753 MEMB     180      CHL1     C1       CRL2    -0.180000       12.0110           0
     20754 MEMB     180      CHL1     H1A      HGA2     0.900000E-01   1.00800           0
     20755 MEMB     180      CHL1     H1B      HGA2     0.900000E-01   1.00800           0
     20756 MEMB     180      CHL1     C2       CRL2    -0.180000       12.0110           0
     20757 MEMB     180      CHL1     H2A      HGA2     0.900000E-01   1.00800           0
     20758 MEMB     180      CHL1     H2B      HGA2     0.900000E-01   1.00800           0
     20759 MEMB     180      CHL1     C20      CTL1    -0.900000E-01   12.0110           0
     20760 MEMB     180      CHL1     H20      HAL1     0.900000E-01   1.00800           0
     20761 MEMB     180      CHL1     C21      CTL3    -0.270000       12.0110           0
     20762 MEMB     180      CHL1     H21A     HAL3     0.900000E-01   1.00800           0
     20763 MEMB     180      CHL1     H21B     HAL3     0.900000E-01   1.00800           0
     20764 MEMB     180      CHL1     H21C     HAL3     0.900000E-01   1.00800           0
     20765 MEMB     180      CHL1     C22      CTL2    -0.180000       12.0110           0
     20766 MEMB     180      CHL1     H22A     HAL2     0.900000E-01   1.00800           0
     20767 MEMB     180      CHL1     H22B     HAL2     0.900000E-01   1.00800           0
     20768 MEMB     180      CHL1     C23      CTL2    -0.180000       12.0110           0
     20769 MEMB     180      CHL1     H23A     HAL2     0.900000E-01   1.00800           0
     20770 MEMB     180      CHL1     H23B     HAL2     0.900000E-01   1.00800           0
     20771 MEMB     180      CHL1     C24      CTL2    -0.180000       12.0110           0
     20772 MEMB     180      CHL1     H24A     HAL2     0.900000E-01   1.00800           0
     20773 MEMB     180      CHL1     H24B     HAL2     0.900000E-01   1.00800           0
     20774 MEMB     180      CHL1     C25      CTL1    -0.900000E-01   12.0110           0
     20775 MEMB     180      CHL1     H25      HAL1     0.900000E-01   1.00800           0
     20776 MEMB     180      CHL1     C26      CTL3    -0.270000       12.0110           0
     20777 MEMB     180      CHL1     H26A     HAL3     0.900000E-01   1.00800           0
     20778 MEMB     180      CHL1     H26B     HAL3     0.900000E-01   1.00800           0
     20779 MEMB     180      CHL1     H26C     HAL3     0.900000E-01   1.00800           0
     20780 MEMB     180      CHL1     C27      CTL3    -0.270000       12.0110           0
     20781 MEMB     180      CHL1     H27A     HAL3     0.900000E-01   1.00800           0
     20782 MEMB     180      CHL1     H27B     HAL3     0.900000E-01   1.00800           0
     20783 MEMB     180      CHL1     H27C     HAL3     0.900000E-01   1.00800           0
     20784 MEMB     181      SAPE     N        NH3L    -0.300000       14.0070           0
     20785 MEMB     181      SAPE     HN1      HCL      0.330000       1.00800           0
     20786 MEMB     181      SAPE     HN2      HCL      0.330000       1.00800           0
     20787 MEMB     181      SAPE     HN3      HCL      0.330000       1.00800           0
     20788 MEMB     181      SAPE     C12      CTL2     0.130000       12.0110           0
     20789 MEMB     181      SAPE     H12A     HAL2     0.900000E-01   1.00800           0
     20790 MEMB     181      SAPE     H12B     HAL2     0.900000E-01   1.00800           0
     20791 MEMB     181      SAPE     C11      CTL2    -0.800000E-01   12.0110           0
     20792 MEMB     181      SAPE     H11A     HAL2     0.900000E-01   1.00800           0
     20793 MEMB     181      SAPE     H11B     HAL2     0.900000E-01   1.00800           0
     20794 MEMB     181      SAPE     P        PL        1.50000       30.9740           0
     20795 MEMB     181      SAPE     O13      O2L     -0.780000       15.9994           0
     20796 MEMB     181      SAPE     O14      O2L     -0.780000       15.9994           0
     20797 MEMB     181      SAPE     O12      OSLP    -0.570000       15.9994           0
     20798 MEMB     181      SAPE     O11      OSLP    -0.570000       15.9994           0
     20799 MEMB     181      SAPE     C1       CTL2    -0.800000E-01   12.0110           0
     20800 MEMB     181      SAPE     HA       HAL2     0.900000E-01   1.00800           0
     20801 MEMB     181      SAPE     HB       HAL2     0.900000E-01   1.00800           0
     20802 MEMB     181      SAPE     C2       CTL1     0.170000       12.0110           0
     20803 MEMB     181      SAPE     HS       HAL1     0.900000E-01   1.00800           0
     20804 MEMB     181      SAPE     O21      OSL     -0.490000       15.9994           0
     20805 MEMB     181      SAPE     C21      CL       0.900000       12.0110           0
     20806 MEMB     181      SAPE     O22      OBL     -0.630000       15.9994           0
     20807 MEMB     181      SAPE     C22      CTL2    -0.220000       12.0110           0
     20808 MEMB     181      SAPE     H2R      HAL2     0.900000E-01   1.00800           0
     20809 MEMB     181      SAPE     H2S      HAL2     0.900000E-01   1.00800           0
     20810 MEMB     181      SAPE     C3       CTL2     0.800000E-01   12.0110           0
     20811 MEMB     181      SAPE     HX       HAL2     0.900000E-01   1.00800           0
     20812 MEMB     181      SAPE     HY       HAL2     0.900000E-01   1.00800           0
     20813 MEMB     181      SAPE     O31      OSL     -0.490000       15.9994           0
     20814 MEMB     181      SAPE     C31      CL       0.900000       12.0110           0
     20815 MEMB     181      SAPE     O32      OBL     -0.630000       15.9994           0
     20816 MEMB     181      SAPE     C32      CTL2    -0.220000       12.0110           0
     20817 MEMB     181      SAPE     H2X      HAL2     0.900000E-01   1.00800           0
     20818 MEMB     181      SAPE     H2Y      HAL2     0.900000E-01   1.00800           0
     20819 MEMB     181      SAPE     C23      CTL2    -0.180000       12.0110           0
     20820 MEMB     181      SAPE     H3R      HAL2     0.900000E-01   1.00800           0
     20821 MEMB     181      SAPE     H3S      HAL2     0.900000E-01   1.00800           0
     20822 MEMB     181      SAPE     C24      CTL2    -0.180000       12.0110           0
     20823 MEMB     181      SAPE     H4R      HAL2     0.900000E-01   1.00800           0
     20824 MEMB     181      SAPE     H4S      HAL2     0.900000E-01   1.00800           0
     20825 MEMB     181      SAPE     C25      CEL1    -0.150000       12.0110           0
     20826 MEMB     181      SAPE     H5R      HEL1     0.150000       1.00800           0
     20827 MEMB     181      SAPE     C26      CEL1    -0.150000       12.0110           0
     20828 MEMB     181      SAPE     H6R      HEL1     0.150000       1.00800           0
     20829 MEMB     181      SAPE     C27      CTL2    -0.180000       12.0110           0
     20830 MEMB     181      SAPE     H7R      HAL2     0.900000E-01   1.00800           0
     20831 MEMB     181      SAPE     H7S      HAL2     0.900000E-01   1.00800           0
     20832 MEMB     181      SAPE     C28      CEL1    -0.150000       12.0110           0
     20833 MEMB     181      SAPE     H8R      HEL1     0.150000       1.00800           0
     20834 MEMB     181      SAPE     C29      CEL1    -0.150000       12.0110           0
     20835 MEMB     181      SAPE     H9R      HEL1     0.150000       1.00800           0
     20836 MEMB     181      SAPE     C210     CTL2    -0.180000       12.0110           0
     20837 MEMB     181      SAPE     H10R     HAL2     0.900000E-01   1.00800           0
     20838 MEMB     181      SAPE     H10S     HAL2     0.900000E-01   1.00800           0
     20839 MEMB     181      SAPE     C211     CEL1    -0.150000       12.0110           0
     20840 MEMB     181      SAPE     H11R     HEL1     0.150000       1.00800           0
     20841 MEMB     181      SAPE     C212     CEL1    -0.150000       12.0110           0
     20842 MEMB     181      SAPE     H12R     HEL1     0.150000       1.00800           0
     20843 MEMB     181      SAPE     C213     CTL2    -0.180000       12.0110           0
     20844 MEMB     181      SAPE     H13R     HAL2     0.900000E-01   1.00800           0
     20845 MEMB     181      SAPE     H13S     HAL2     0.900000E-01   1.00800           0
     20846 MEMB     181      SAPE     C214     CEL1    -0.150000       12.0110           0
     20847 MEMB     181      SAPE     H14R     HEL1     0.150000       1.00800           0
     20848 MEMB     181      SAPE     C215     CEL1    -0.150000       12.0110           0
     20849 MEMB     181      SAPE     H15R     HEL1     0.150000       1.00800           0
     20850 MEMB     181      SAPE     C216     CTL2    -0.180000       12.0110           0
     20851 MEMB     181      SAPE     H16R     HAL2     0.900000E-01   1.00800           0
     20852 MEMB     181      SAPE     H16S     HAL2     0.900000E-01   1.00800           0
     20853 MEMB     181      SAPE     C217     CTL2    -0.180000       12.0110           0
     20854 MEMB     181      SAPE     H17R     HAL2     0.900000E-01   1.00800           0
     20855 MEMB     181      SAPE     H17S     HAL2     0.900000E-01   1.00800           0
     20856 MEMB     181      SAPE     C218     CTL2    -0.180000       12.0110           0
     20857 MEMB     181      SAPE     H18R     HAL2     0.900000E-01   1.00800           0
     20858 MEMB     181      SAPE     H18S     HAL2     0.900000E-01   1.00800           0
     20859 MEMB     181      SAPE     C219     CTL2    -0.180000       12.0110           0
     20860 MEMB     181      SAPE     H19R     HAL2     0.900000E-01   1.00800           0
     20861 MEMB     181      SAPE     H19S     HAL2     0.900000E-01   1.00800           0
     20862 MEMB     181      SAPE     C220     CTL3    -0.270000       12.0110           0
     20863 MEMB     181      SAPE     H20R     HAL3     0.900000E-01   1.00800           0
     20864 MEMB     181      SAPE     H20S     HAL3     0.900000E-01   1.00800           0
     20865 MEMB     181      SAPE     H20T     HAL3     0.900000E-01   1.00800           0
     20866 MEMB     181      SAPE     C33      CTL2    -0.180000       12.0110           0
     20867 MEMB     181      SAPE     H3X      HAL2     0.900000E-01   1.00800           0
     20868 MEMB     181      SAPE     H3Y      HAL2     0.900000E-01   1.00800           0
     20869 MEMB     181      SAPE     C34      CTL2    -0.180000       12.0110           0
     20870 MEMB     181      SAPE     H4X      HAL2     0.900000E-01   1.00800           0
     20871 MEMB     181      SAPE     H4Y      HAL2     0.900000E-01   1.00800           0
     20872 MEMB     181      SAPE     C35      CTL2    -0.180000       12.0110           0
     20873 MEMB     181      SAPE     H5X      HAL2     0.900000E-01   1.00800           0
     20874 MEMB     181      SAPE     H5Y      HAL2     0.900000E-01   1.00800           0
     20875 MEMB     181      SAPE     C36      CTL2    -0.180000       12.0110           0
     20876 MEMB     181      SAPE     H6X      HAL2     0.900000E-01   1.00800           0
     20877 MEMB     181      SAPE     H6Y      HAL2     0.900000E-01   1.00800           0
     20878 MEMB     181      SAPE     C37      CTL2    -0.180000       12.0110           0
     20879 MEMB     181      SAPE     H7X      HAL2     0.900000E-01   1.00800           0
     20880 MEMB     181      SAPE     H7Y      HAL2     0.900000E-01   1.00800           0
     20881 MEMB     181      SAPE     C38      CTL2    -0.180000       12.0110           0
     20882 MEMB     181      SAPE     H8X      HAL2     0.900000E-01   1.00800           0
     20883 MEMB     181      SAPE     H8Y      HAL2     0.900000E-01   1.00800           0
     20884 MEMB     181      SAPE     C39      CTL2    -0.180000       12.0110           0
     20885 MEMB     181      SAPE     H9X      HAL2     0.900000E-01   1.00800           0
     20886 MEMB     181      SAPE     H9Y      HAL2     0.900000E-01   1.00800           0
     20887 MEMB     181      SAPE     C310     CTL2    -0.180000       12.0110           0
     20888 MEMB     181      SAPE     H10X     HAL2     0.900000E-01   1.00800           0
     20889 MEMB     181      SAPE     H10Y     HAL2     0.900000E-01   1.00800           0
     20890 MEMB     181      SAPE     C311     CTL2    -0.180000       12.0110           0
     20891 MEMB     181      SAPE     H11X     HAL2     0.900000E-01   1.00800           0
     20892 MEMB     181      SAPE     H11Y     HAL2     0.900000E-01   1.00800           0
     20893 MEMB     181      SAPE     C312     CTL2    -0.180000       12.0110           0
     20894 MEMB     181      SAPE     H12X     HAL2     0.900000E-01   1.00800           0
     20895 MEMB     181      SAPE     H12Y     HAL2     0.900000E-01   1.00800           0
     20896 MEMB     181      SAPE     C313     CTL2    -0.180000       12.0110           0
     20897 MEMB     181      SAPE     H13X     HAL2     0.900000E-01   1.00800           0
     20898 MEMB     181      SAPE     H13Y     HAL2     0.900000E-01   1.00800           0
     20899 MEMB     181      SAPE     C314     CTL2    -0.180000       12.0110           0
     20900 MEMB     181      SAPE     H14X     HAL2     0.900000E-01   1.00800           0
     20901 MEMB     181      SAPE     H14Y     HAL2     0.900000E-01   1.00800           0
     20902 MEMB     181      SAPE     C315     CTL2    -0.180000       12.0110           0
     20903 MEMB     181      SAPE     H15X     HAL2     0.900000E-01   1.00800           0
     20904 MEMB     181      SAPE     H15Y     HAL2     0.900000E-01   1.00800           0
     20905 MEMB     181      SAPE     C316     CTL2    -0.180000       12.0110           0
     20906 MEMB     181      SAPE     H16X     HAL2     0.900000E-01   1.00800           0
     20907 MEMB     181      SAPE     H16Y     HAL2     0.900000E-01   1.00800           0
     20908 MEMB     181      SAPE     C317     CTL2    -0.180000       12.0110           0
     20909 MEMB     181      SAPE     H17X     HAL2     0.900000E-01   1.00800           0
     20910 MEMB     181      SAPE     H17Y     HAL2     0.900000E-01   1.00800           0
     20911 MEMB     181      SAPE     C318     CTL3    -0.270000       12.0110           0
     20912 MEMB     181      SAPE     H18X     HAL3     0.900000E-01   1.00800           0
     20913 MEMB     181      SAPE     H18Y     HAL3     0.900000E-01   1.00800           0
     20914 MEMB     181      SAPE     H18Z     HAL3     0.900000E-01   1.00800           0
     20915 MEMB     182      SLPC     N        NTL     -0.600000       14.0070           0
     20916 MEMB     182      SLPC     C13      CTL5    -0.350000       12.0110           0
     20917 MEMB     182      SLPC     H13A     HL       0.250000       1.00800           0
     20918 MEMB     182      SLPC     H13B     HL       0.250000       1.00800           0
     20919 MEMB     182      SLPC     H13C     HL       0.250000       1.00800           0
     20920 MEMB     182      SLPC     C14      CTL5    -0.350000       12.0110           0
     20921 MEMB     182      SLPC     H14A     HL       0.250000       1.00800           0
     20922 MEMB     182      SLPC     H14B     HL       0.250000       1.00800           0
     20923 MEMB     182      SLPC     H14C     HL       0.250000       1.00800           0
     20924 MEMB     182      SLPC     C15      CTL5    -0.350000       12.0110           0
     20925 MEMB     182      SLPC     H15A     HL       0.250000       1.00800           0
     20926 MEMB     182      SLPC     H15B     HL       0.250000       1.00800           0
     20927 MEMB     182      SLPC     H15C     HL       0.250000       1.00800           0
     20928 MEMB     182      SLPC     C12      CTL2    -0.100000       12.0110           0
     20929 MEMB     182      SLPC     H12A     HL       0.250000       1.00800           0
     20930 MEMB     182      SLPC     H12B     HL       0.250000       1.00800           0
     20931 MEMB     182      SLPC     C11      CTL2    -0.800000E-01   12.0110           0
     20932 MEMB     182      SLPC     H11A     HAL2     0.900000E-01   1.00800           0
     20933 MEMB     182      SLPC     H11B     HAL2     0.900000E-01   1.00800           0
     20934 MEMB     182      SLPC     P        PL        1.50000       30.9740           0
     20935 MEMB     182      SLPC     O13      O2L     -0.780000       15.9994           0
     20936 MEMB     182      SLPC     O14      O2L     -0.780000       15.9994           0
     20937 MEMB     182      SLPC     O12      OSLP    -0.570000       15.9994           0
     20938 MEMB     182      SLPC     O11      OSLP    -0.570000       15.9994           0
     20939 MEMB     182      SLPC     C1       CTL2    -0.800000E-01   12.0110           0
     20940 MEMB     182      SLPC     HA       HAL2     0.900000E-01   1.00800           0
     20941 MEMB     182      SLPC     HB       HAL2     0.900000E-01   1.00800           0
     20942 MEMB     182      SLPC     C2       CTL1     0.170000       12.0110           0
     20943 MEMB     182      SLPC     HS       HAL1     0.900000E-01   1.00800           0
     20944 MEMB     182      SLPC     O21      OSL     -0.490000       15.9994           0
     20945 MEMB     182      SLPC     C21      CL       0.900000       12.0110           0
     20946 MEMB     182      SLPC     O22      OBL     -0.630000       15.9994           0
     20947 MEMB     182      SLPC     C22      CTL2    -0.220000       12.0110           0
     20948 MEMB     182      SLPC     H2R      HAL2     0.900000E-01   1.00800           0
     20949 MEMB     182      SLPC     H2S      HAL2     0.900000E-01   1.00800           0
     20950 MEMB     182      SLPC     C3       CTL2     0.800000E-01   12.0110           0
     20951 MEMB     182      SLPC     HX       HAL2     0.900000E-01   1.00800           0
     20952 MEMB     182      SLPC     HY       HAL2     0.900000E-01   1.00800           0
     20953 MEMB     182      SLPC     O31      OSL     -0.490000       15.9994           0
     20954 MEMB     182      SLPC     C31      CL       0.900000       12.0110           0
     20955 MEMB     182      SLPC     O32      OBL     -0.630000       15.9994           0
     20956 MEMB     182      SLPC     C32      CTL2    -0.220000       12.0110           0
     20957 MEMB     182      SLPC     H2X      HAL2     0.900000E-01   1.00800           0
     20958 MEMB     182      SLPC     H2Y      HAL2     0.900000E-01   1.00800           0
     20959 MEMB     182      SLPC     C23      CTL2    -0.180000       12.0110           0
     20960 MEMB     182      SLPC     H3R      HAL2     0.900000E-01   1.00800           0
     20961 MEMB     182      SLPC     H3S      HAL2     0.900000E-01   1.00800           0
     20962 MEMB     182      SLPC     C24      CTL2    -0.180000       12.0110           0
     20963 MEMB     182      SLPC     H4R      HAL2     0.900000E-01   1.00800           0
     20964 MEMB     182      SLPC     H4S      HAL2     0.900000E-01   1.00800           0
     20965 MEMB     182      SLPC     C25      CTL2    -0.180000       12.0110           0
     20966 MEMB     182      SLPC     H5R      HAL2     0.900000E-01   1.00800           0
     20967 MEMB     182      SLPC     H5S      HAL2     0.900000E-01   1.00800           0
     20968 MEMB     182      SLPC     C26      CTL2    -0.180000       12.0110           0
     20969 MEMB     182      SLPC     H6R      HAL2     0.900000E-01   1.00800           0
     20970 MEMB     182      SLPC     H6S      HAL2     0.900000E-01   1.00800           0
     20971 MEMB     182      SLPC     C27      CTL2    -0.180000       12.0110           0
     20972 MEMB     182      SLPC     H7R      HAL2     0.900000E-01   1.00800           0
     20973 MEMB     182      SLPC     H7S      HAL2     0.900000E-01   1.00800           0
     20974 MEMB     182      SLPC     C28      CTL2    -0.180000       12.0110           0
     20975 MEMB     182      SLPC     H8R      HAL2     0.900000E-01   1.00800           0
     20976 MEMB     182      SLPC     H8S      HAL2     0.900000E-01   1.00800           0
     20977 MEMB     182      SLPC     C29      CEL1    -0.150000       12.0110           0
     20978 MEMB     182      SLPC     H9R      HEL1     0.150000       1.00800           0
     20979 MEMB     182      SLPC     C210     CEL1    -0.150000       12.0110           0
     20980 MEMB     182      SLPC     H10R     HEL1     0.150000       1.00800           0
     20981 MEMB     182      SLPC     C211     CTL2    -0.180000       12.0110           0
     20982 MEMB     182      SLPC     H11R     HAL2     0.900000E-01   1.00800           0
     20983 MEMB     182      SLPC     H11S     HAL2     0.900000E-01   1.00800           0
     20984 MEMB     182      SLPC     C212     CEL1    -0.150000       12.0110           0
     20985 MEMB     182      SLPC     H12R     HEL1     0.150000       1.00800           0
     20986 MEMB     182      SLPC     C213     CEL1    -0.150000       12.0110           0
     20987 MEMB     182      SLPC     H13R     HEL1     0.150000       1.00800           0
     20988 MEMB     182      SLPC     C214     CTL2    -0.180000       12.0110           0
     20989 MEMB     182      SLPC     H14R     HAL2     0.900000E-01   1.00800           0
     20990 MEMB     182      SLPC     H14S     HAL2     0.900000E-01   1.00800           0
     20991 MEMB     182      SLPC     C215     CTL2    -0.180000       12.0110           0
     20992 MEMB     182      SLPC     H15R     HAL2     0.900000E-01   1.00800           0
     20993 MEMB     182      SLPC     H15S     HAL2     0.900000E-01   1.00800           0
     20994 MEMB     182      SLPC     C216     CTL2    -0.180000       12.0110           0
     20995 MEMB     182      SLPC     H16R     HAL2     0.900000E-01   1.00800           0
     20996 MEMB     182      SLPC     H16S     HAL2     0.900000E-01   1.00800           0
     20997 MEMB     182      SLPC     C217     CTL2    -0.180000       12.0110           0
     20998 MEMB     182      SLPC     H17R     HAL2     0.900000E-01   1.00800           0
     20999 MEMB     182      SLPC     H17S     HAL2     0.900000E-01   1.00800           0
     21000 MEMB     182      SLPC     C218     CTL3    -0.270000       12.0110           0
     21001 MEMB     182      SLPC     H18R     HAL3     0.900000E-01   1.00800           0
     21002 MEMB     182      SLPC     H18S     HAL3     0.900000E-01   1.00800           0
     21003 MEMB     182      SLPC     H18T     HAL3     0.900000E-01   1.00800           0
     21004 MEMB     182      SLPC     C33      CTL2    -0.180000       12.0110           0
     21005 MEMB     182      SLPC     H3X      HAL2     0.900000E-01   1.00800           0
     21006 MEMB     182      SLPC     H3Y      HAL2     0.900000E-01   1.00800           0
     21007 MEMB     182      SLPC     C34      CTL2    -0.180000       12.0110           0
     21008 MEMB     182      SLPC     H4X      HAL2     0.900000E-01   1.00800           0
     21009 MEMB     182      SLPC     H4Y      HAL2     0.900000E-01   1.00800           0
     21010 MEMB     182      SLPC     C35      CTL2    -0.180000       12.0110           0
     21011 MEMB     182      SLPC     H5X      HAL2     0.900000E-01   1.00800           0
     21012 MEMB     182      SLPC     H5Y      HAL2     0.900000E-01   1.00800           0
     21013 MEMB     182      SLPC     C36      CTL2    -0.180000       12.0110           0
     21014 MEMB     182      SLPC     H6X      HAL2     0.900000E-01   1.00800           0
     21015 MEMB     182      SLPC     H6Y      HAL2     0.900000E-01   1.00800           0
     21016 MEMB     182      SLPC     C37      CTL2    -0.180000       12.0110           0
     21017 MEMB     182      SLPC     H7X      HAL2     0.900000E-01   1.00800           0
     21018 MEMB     182      SLPC     H7Y      HAL2     0.900000E-01   1.00800           0
     21019 MEMB     182      SLPC     C38      CTL2    -0.180000       12.0110           0
     21020 MEMB     182      SLPC     H8X      HAL2     0.900000E-01   1.00800           0
     21021 MEMB     182      SLPC     H8Y      HAL2     0.900000E-01   1.00800           0
     21022 MEMB     182      SLPC     C39      CTL2    -0.180000       12.0110           0
     21023 MEMB     182      SLPC     H9X      HAL2     0.900000E-01   1.00800           0
     21024 MEMB     182      SLPC     H9Y      HAL2     0.900000E-01   1.00800           0
     21025 MEMB     182      SLPC     C310     CTL2    -0.180000       12.0110           0
     21026 MEMB     182      SLPC     H10X     HAL2     0.900000E-01   1.00800           0
     21027 MEMB     182      SLPC     H10Y     HAL2     0.900000E-01   1.00800           0
     21028 MEMB     182      SLPC     C311     CTL2    -0.180000       12.0110           0
     21029 MEMB     182      SLPC     H11X     HAL2     0.900000E-01   1.00800           0
     21030 MEMB     182      SLPC     H11Y     HAL2     0.900000E-01   1.00800           0
     21031 MEMB     182      SLPC     C312     CTL2    -0.180000       12.0110           0
     21032 MEMB     182      SLPC     H12X     HAL2     0.900000E-01   1.00800           0
     21033 MEMB     182      SLPC     H12Y     HAL2     0.900000E-01   1.00800           0
     21034 MEMB     182      SLPC     C313     CTL2    -0.180000       12.0110           0
     21035 MEMB     182      SLPC     H13X     HAL2     0.900000E-01   1.00800           0
     21036 MEMB     182      SLPC     H13Y     HAL2     0.900000E-01   1.00800           0
     21037 MEMB     182      SLPC     C314     CTL2    -0.180000       12.0110           0
     21038 MEMB     182      SLPC     H14X     HAL2     0.900000E-01   1.00800           0
     21039 MEMB     182      SLPC     H14Y     HAL2     0.900000E-01   1.00800           0
     21040 MEMB     182      SLPC     C315     CTL2    -0.180000       12.0110           0
     21041 MEMB     182      SLPC     H15X     HAL2     0.900000E-01   1.00800           0
     21042 MEMB     182      SLPC     H15Y     HAL2     0.900000E-01   1.00800           0
     21043 MEMB     182      SLPC     C316     CTL2    -0.180000       12.0110           0
     21044 MEMB     182      SLPC     H16X     HAL2     0.900000E-01   1.00800           0
     21045 MEMB     182      SLPC     H16Y     HAL2     0.900000E-01   1.00800           0
     21046 MEMB     182      SLPC     C317     CTL2    -0.180000       12.0110           0
     21047 MEMB     182      SLPC     H17X     HAL2     0.900000E-01   1.00800           0
     21048 MEMB     182      SLPC     H17Y     HAL2     0.900000E-01   1.00800           0
     21049 MEMB     182      SLPC     C318     CTL3    -0.270000       12.0110           0
     21050 MEMB     182      SLPC     H18X     HAL3     0.900000E-01   1.00800           0
     21051 MEMB     182      SLPC     H18Y     HAL3     0.900000E-01   1.00800           0
     21052 MEMB     182      SLPC     H18Z     HAL3     0.900000E-01   1.00800           0
     21053 MEMB     183      OSM      N        NTL     -0.600000       14.0070           0
     21054 MEMB     183      OSM      C15      CTL5    -0.350000       12.0110           0
     21055 MEMB     183      OSM      H15A     HL       0.250000       1.00800           0
     21056 MEMB     183      OSM      H15B     HL       0.250000       1.00800           0
     21057 MEMB     183      OSM      H15C     HL       0.250000       1.00800           0
     21058 MEMB     183      OSM      C14      CTL5    -0.350000       12.0110           0
     21059 MEMB     183      OSM      H14A     HL       0.250000       1.00800           0
     21060 MEMB     183      OSM      H14B     HL       0.250000       1.00800           0
     21061 MEMB     183      OSM      H14C     HL       0.250000       1.00800           0
     21062 MEMB     183      OSM      C13      CTL5    -0.350000       12.0110           0
     21063 MEMB     183      OSM      H13A     HL       0.250000       1.00800           0
     21064 MEMB     183      OSM      H13B     HL       0.250000       1.00800           0
     21065 MEMB     183      OSM      H13C     HL       0.250000       1.00800           0
     21066 MEMB     183      OSM      C12      CTL2    -0.100000       12.0110           0
     21067 MEMB     183      OSM      H12A     HL       0.250000       1.00800           0
     21068 MEMB     183      OSM      H12B     HL       0.250000       1.00800           0
     21069 MEMB     183      OSM      C11      CTL2    -0.800000E-01   12.0110           0
     21070 MEMB     183      OSM      H11A     HAL2     0.900000E-01   1.00800           0
     21071 MEMB     183      OSM      H11B     HAL2     0.900000E-01   1.00800           0
     21072 MEMB     183      OSM      P        PL        1.50000       30.9740           0
     21073 MEMB     183      OSM      O13      O2L     -0.780000       15.9994           0
     21074 MEMB     183      OSM      O14      O2L     -0.780000       15.9994           0
     21075 MEMB     183      OSM      O11      OSLP    -0.570000       15.9994           0
     21076 MEMB     183      OSM      O12      OSLP    -0.570000       15.9994           0
     21077 MEMB     183      OSM      C1S      CTL2    -0.800000E-01   12.0110           0
     21078 MEMB     183      OSM      H1S      HAL2     0.900000E-01   1.00800           0
     21079 MEMB     183      OSM      H1T      HAL2     0.900000E-01   1.00800           0
     21080 MEMB     183      OSM      NF       NHL     -0.700000       14.0070           0
     21081 MEMB     183      OSM      HNF      H        0.350000       1.00800           0
     21082 MEMB     183      OSM      C2S      CTL1     0.300000       12.0110           0
     21083 MEMB     183      OSM      H2S      HAL1     0.500000E-01   1.00800           0
     21084 MEMB     183      OSM      C3S      CTO1     0.500000       12.0110           0
     21085 MEMB     183      OSM      H3S      HAL1    -0.110000       1.00800           0
     21086 MEMB     183      OSM      O3       OHL     -0.690000       15.9994           0
     21087 MEMB     183      OSM      HO3      HOL      0.300000       1.00800           0
     21088 MEMB     183      OSM      C4S      CEL3    -0.150000       12.0110           0
     21089 MEMB     183      OSM      H4S      HEL1     0.150000       1.00800           0
     21090 MEMB     183      OSM      C5S      CEL3    -0.150000       12.0110           0
     21091 MEMB     183      OSM      H5S      HEL1     0.150000       1.00800           0
     21092 MEMB     183      OSM      C6S      CTL2    -0.180000       12.0110           0
     21093 MEMB     183      OSM      H6S      HAL2     0.900000E-01   1.00800           0
     21094 MEMB     183      OSM      H6T      HAL2     0.900000E-01   1.00800           0
     21095 MEMB     183      OSM      C7S      CTL2    -0.180000       12.0110           0
     21096 MEMB     183      OSM      H7S      HAL2     0.900000E-01   1.00800           0
     21097 MEMB     183      OSM      H7T      HAL2     0.900000E-01   1.00800           0
     21098 MEMB     183      OSM      C8S      CTL2    -0.180000       12.0110           0
     21099 MEMB     183      OSM      H8S      HAL2     0.900000E-01   1.00800           0
     21100 MEMB     183      OSM      H8T      HAL2     0.900000E-01   1.00800           0
     21101 MEMB     183      OSM      C9S      CTL2    -0.180000       12.0110           0
     21102 MEMB     183      OSM      H9S      HAL2     0.900000E-01   1.00800           0
     21103 MEMB     183      OSM      H9T      HAL2     0.900000E-01   1.00800           0
     21104 MEMB     183      OSM      C10S     CTL2    -0.180000       12.0110           0
     21105 MEMB     183      OSM      H10S     HAL2     0.900000E-01   1.00800           0
     21106 MEMB     183      OSM      H10T     HAL2     0.900000E-01   1.00800           0
     21107 MEMB     183      OSM      C11S     CTL2    -0.180000       12.0110           0
     21108 MEMB     183      OSM      H11S     HAL2     0.900000E-01   1.00800           0
     21109 MEMB     183      OSM      H11T     HAL2     0.900000E-01   1.00800           0
     21110 MEMB     183      OSM      C12S     CTL2    -0.180000       12.0110           0
     21111 MEMB     183      OSM      H12S     HAL2     0.900000E-01   1.00800           0
     21112 MEMB     183      OSM      H12T     HAL2     0.900000E-01   1.00800           0
     21113 MEMB     183      OSM      C13S     CTL2    -0.180000       12.0110           0
     21114 MEMB     183      OSM      H13S     HAL2     0.900000E-01   1.00800           0
     21115 MEMB     183      OSM      H13T     HAL2     0.900000E-01   1.00800           0
     21116 MEMB     183      OSM      C14S     CTL2    -0.180000       12.0110           0
     21117 MEMB     183      OSM      H14S     HAL2     0.900000E-01   1.00800           0
     21118 MEMB     183      OSM      H14T     HAL2     0.900000E-01   1.00800           0
     21119 MEMB     183      OSM      C15S     CTL2    -0.180000       12.0110           0
     21120 MEMB     183      OSM      H15S     HAL2     0.900000E-01   1.00800           0
     21121 MEMB     183      OSM      H15T     HAL2     0.900000E-01   1.00800           0
     21122 MEMB     183      OSM      C16S     CTL2    -0.180000       12.0110           0
     21123 MEMB     183      OSM      H16S     HAL2     0.900000E-01   1.00800           0
     21124 MEMB     183      OSM      H16T     HAL2     0.900000E-01   1.00800           0
     21125 MEMB     183      OSM      C17S     CTL2    -0.180000       12.0110           0
     21126 MEMB     183      OSM      H17S     HAL2     0.900000E-01   1.00800           0
     21127 MEMB     183      OSM      H17T     HAL2     0.900000E-01   1.00800           0
     21128 MEMB     183      OSM      C18S     CTL3    -0.270000       12.0110           0
     21129 MEMB     183      OSM      H18S     HAL3     0.900000E-01   1.00800           0
     21130 MEMB     183      OSM      H18T     HAL3     0.900000E-01   1.00800           0
     21131 MEMB     183      OSM      H18U     HAL3     0.900000E-01   1.00800           0
     21132 MEMB     183      OSM      C1F      C        0.550000       12.0110           0
     21133 MEMB     183      OSM      OF       O       -0.600000       15.9994           0
     21134 MEMB     183      OSM      C2F      CTL2    -0.700000E-01   12.0110           0
     21135 MEMB     183      OSM      H2F      HAL2     0.600000E-01   1.00800           0
     21136 MEMB     183      OSM      H2G      HAL2     0.600000E-01   1.00800           0
     21137 MEMB     183      OSM      C3F      CTL2    -0.180000       12.0110           0
     21138 MEMB     183      OSM      H3F      HAL2     0.900000E-01   1.00800           0
     21139 MEMB     183      OSM      H3G      HAL2     0.900000E-01   1.00800           0
     21140 MEMB     183      OSM      C4F      CTL2    -0.180000       12.0110           0
     21141 MEMB     183      OSM      H4F      HAL2     0.900000E-01   1.00800           0
     21142 MEMB     183      OSM      H4G      HAL2     0.900000E-01   1.00800           0
     21143 MEMB     183      OSM      C5F      CTL2    -0.180000       12.0110           0
     21144 MEMB     183      OSM      H5F      HAL2     0.900000E-01   1.00800           0
     21145 MEMB     183      OSM      H5G      HAL2     0.900000E-01   1.00800           0
     21146 MEMB     183      OSM      C6F      CTL2    -0.180000       12.0110           0
     21147 MEMB     183      OSM      H6F      HAL2     0.900000E-01   1.00800           0
     21148 MEMB     183      OSM      H6G      HAL2     0.900000E-01   1.00800           0
     21149 MEMB     183      OSM      C7F      CTL2    -0.180000       12.0110           0
     21150 MEMB     183      OSM      H7F      HAL2     0.900000E-01   1.00800           0
     21151 MEMB     183      OSM      H7G      HAL2     0.900000E-01   1.00800           0
     21152 MEMB     183      OSM      C8F      CTL2    -0.180000       12.0110           0
     21153 MEMB     183      OSM      H8F      HAL2     0.900000E-01   1.00800           0
     21154 MEMB     183      OSM      H8G      HAL2     0.900000E-01   1.00800           0
     21155 MEMB     183      OSM      C9F      CEL1    -0.150000       12.0110           0
     21156 MEMB     183      OSM      H9F      HEL1     0.150000       1.00800           0
     21157 MEMB     183      OSM      C10F     CEL1    -0.150000       12.0110           0
     21158 MEMB     183      OSM      H10F     HEL1     0.150000       1.00800           0
     21159 MEMB     183      OSM      C11F     CTL2    -0.180000       12.0110           0
     21160 MEMB     183      OSM      H11F     HAL2     0.900000E-01   1.00800           0
     21161 MEMB     183      OSM      H11G     HAL2     0.900000E-01   1.00800           0
     21162 MEMB     183      OSM      C12F     CTL2    -0.180000       12.0110           0
     21163 MEMB     183      OSM      H12F     HAL2     0.900000E-01   1.00800           0
     21164 MEMB     183      OSM      H12G     HAL2     0.900000E-01   1.00800           0
     21165 MEMB     183      OSM      C13F     CTL2    -0.180000       12.0110           0
     21166 MEMB     183      OSM      H13F     HAL2     0.900000E-01   1.00800           0
     21167 MEMB     183      OSM      H13G     HAL2     0.900000E-01   1.00800           0
     21168 MEMB     183      OSM      C14F     CTL2    -0.180000       12.0110           0
     21169 MEMB     183      OSM      H14F     HAL2     0.900000E-01   1.00800           0
     21170 MEMB     183      OSM      H14G     HAL2     0.900000E-01   1.00800           0
     21171 MEMB     183      OSM      C15F     CTL2    -0.180000       12.0110           0
     21172 MEMB     183      OSM      H15F     HAL2     0.900000E-01   1.00800           0
     21173 MEMB     183      OSM      H15G     HAL2     0.900000E-01   1.00800           0
     21174 MEMB     183      OSM      C16F     CTL2    -0.180000       12.0110           0
     21175 MEMB     183      OSM      H16F     HAL2     0.900000E-01   1.00800           0
     21176 MEMB     183      OSM      H16G     HAL2     0.900000E-01   1.00800           0
     21177 MEMB     183      OSM      C17F     CTL2    -0.180000       12.0110           0
     21178 MEMB     183      OSM      H17F     HAL2     0.900000E-01   1.00800           0
     21179 MEMB     183      OSM      H17G     HAL2     0.900000E-01   1.00800           0
     21180 MEMB     183      OSM      C18F     CTL3    -0.270000       12.0110           0
     21181 MEMB     183      OSM      H18F     HAL3     0.900000E-01   1.00800           0
     21182 MEMB     183      OSM      H18G     HAL3     0.900000E-01   1.00800           0
     21183 MEMB     183      OSM      H18H     HAL3     0.900000E-01   1.00800           0
     21184 MEMB     184      CHL1     C3       CRL1     0.140000       12.0110           0
     21185 MEMB     184      CHL1     H3       HGA1     0.900000E-01   1.00800           0
     21186 MEMB     184      CHL1     O3       OHL     -0.660000       15.9994           0
     21187 MEMB     184      CHL1     H3'      HOL      0.430000       1.00800           0
     21188 MEMB     184      CHL1     C4       CRL2    -0.180000       12.0110           0
     21189 MEMB     184      CHL1     H4A      HGA2     0.900000E-01   1.00800           0
     21190 MEMB     184      CHL1     H4B      HGA2     0.900000E-01   1.00800           0
     21191 MEMB     184      CHL1     C5       CEL1      0.00000       12.0110           0
     21192 MEMB     184      CHL1     C6       CEL1    -0.150000       12.0110           0
     21193 MEMB     184      CHL1     H6       HEL1     0.150000       1.00800           0
     21194 MEMB     184      CHL1     C7       CRL2    -0.180000       12.0110           0
     21195 MEMB     184      CHL1     H7A      HGA2     0.900000E-01   1.00800           0
     21196 MEMB     184      CHL1     H7B      HGA2     0.900000E-01   1.00800           0
     21197 MEMB     184      CHL1     C8       CRL1    -0.900000E-01   12.0110           0
     21198 MEMB     184      CHL1     H8       HGA1     0.900000E-01   1.00800           0
     21199 MEMB     184      CHL1     C14      CRL1    -0.900000E-01   12.0110           0
     21200 MEMB     184      CHL1     H14      HGA1     0.900000E-01   1.00800           0
     21201 MEMB     184      CHL1     C15      CRL2    -0.180000       12.0110           0
     21202 MEMB     184      CHL1     H15A     HGA2     0.900000E-01   1.00800           0
     21203 MEMB     184      CHL1     H15B     HGA2     0.900000E-01   1.00800           0
     21204 MEMB     184      CHL1     C16      CRL2    -0.180000       12.0110           0
     21205 MEMB     184      CHL1     H16A     HGA2     0.900000E-01   1.00800           0
     21206 MEMB     184      CHL1     H16B     HGA2     0.900000E-01   1.00800           0
     21207 MEMB     184      CHL1     C17      CRL1    -0.900000E-01   12.0110           0
     21208 MEMB     184      CHL1     H17      HGA1     0.900000E-01   1.00800           0
     21209 MEMB     184      CHL1     C13      CRL1      0.00000       12.0110           0
     21210 MEMB     184      CHL1     C18      CTL3    -0.270000       12.0110           0
     21211 MEMB     184      CHL1     H18A     HAL3     0.900000E-01   1.00800           0
     21212 MEMB     184      CHL1     H18B     HAL3     0.900000E-01   1.00800           0
     21213 MEMB     184      CHL1     H18C     HAL3     0.900000E-01   1.00800           0
     21214 MEMB     184      CHL1     C12      CRL2    -0.180000       12.0110           0
     21215 MEMB     184      CHL1     H12A     HGA2     0.900000E-01   1.00800           0
     21216 MEMB     184      CHL1     H12B     HGA2     0.900000E-01   1.00800           0
     21217 MEMB     184      CHL1     C11      CRL2    -0.180000       12.0110           0
     21218 MEMB     184      CHL1     H11A     HGA2     0.900000E-01   1.00800           0
     21219 MEMB     184      CHL1     H11B     HGA2     0.900000E-01   1.00800           0
     21220 MEMB     184      CHL1     C9       CRL1    -0.900000E-01   12.0110           0
     21221 MEMB     184      CHL1     H9       HGA1     0.900000E-01   1.00800           0
     21222 MEMB     184      CHL1     C10      CRL1      0.00000       12.0110           0
     21223 MEMB     184      CHL1     C19      CTL3    -0.270000       12.0110           0
     21224 MEMB     184      CHL1     H19A     HAL3     0.900000E-01   1.00800           0
     21225 MEMB     184      CHL1     H19B     HAL3     0.900000E-01   1.00800           0
     21226 MEMB     184      CHL1     H19C     HAL3     0.900000E-01   1.00800           0
     21227 MEMB     184      CHL1     C1       CRL2    -0.180000       12.0110           0
     21228 MEMB     184      CHL1     H1A      HGA2     0.900000E-01   1.00800           0
     21229 MEMB     184      CHL1     H1B      HGA2     0.900000E-01   1.00800           0
     21230 MEMB     184      CHL1     C2       CRL2    -0.180000       12.0110           0
     21231 MEMB     184      CHL1     H2A      HGA2     0.900000E-01   1.00800           0
     21232 MEMB     184      CHL1     H2B      HGA2     0.900000E-01   1.00800           0
     21233 MEMB     184      CHL1     C20      CTL1    -0.900000E-01   12.0110           0
     21234 MEMB     184      CHL1     H20      HAL1     0.900000E-01   1.00800           0
     21235 MEMB     184      CHL1     C21      CTL3    -0.270000       12.0110           0
     21236 MEMB     184      CHL1     H21A     HAL3     0.900000E-01   1.00800           0
     21237 MEMB     184      CHL1     H21B     HAL3     0.900000E-01   1.00800           0
     21238 MEMB     184      CHL1     H21C     HAL3     0.900000E-01   1.00800           0
     21239 MEMB     184      CHL1     C22      CTL2    -0.180000       12.0110           0
     21240 MEMB     184      CHL1     H22A     HAL2     0.900000E-01   1.00800           0
     21241 MEMB     184      CHL1     H22B     HAL2     0.900000E-01   1.00800           0
     21242 MEMB     184      CHL1     C23      CTL2    -0.180000       12.0110           0
     21243 MEMB     184      CHL1     H23A     HAL2     0.900000E-01   1.00800           0
     21244 MEMB     184      CHL1     H23B     HAL2     0.900000E-01   1.00800           0
     21245 MEMB     184      CHL1     C24      CTL2    -0.180000       12.0110           0
     21246 MEMB     184      CHL1     H24A     HAL2     0.900000E-01   1.00800           0
     21247 MEMB     184      CHL1     H24B     HAL2     0.900000E-01   1.00800           0
     21248 MEMB     184      CHL1     C25      CTL1    -0.900000E-01   12.0110           0
     21249 MEMB     184      CHL1     H25      HAL1     0.900000E-01   1.00800           0
     21250 MEMB     184      CHL1     C26      CTL3    -0.270000       12.0110           0
     21251 MEMB     184      CHL1     H26A     HAL3     0.900000E-01   1.00800           0
     21252 MEMB     184      CHL1     H26B     HAL3     0.900000E-01   1.00800           0
     21253 MEMB     184      CHL1     H26C     HAL3     0.900000E-01   1.00800           0
     21254 MEMB     184      CHL1     C27      CTL3    -0.270000       12.0110           0
     21255 MEMB     184      CHL1     H27A     HAL3     0.900000E-01   1.00800           0
     21256 MEMB     184      CHL1     H27B     HAL3     0.900000E-01   1.00800           0
     21257 MEMB     184      CHL1     H27C     HAL3     0.900000E-01   1.00800           0
     21258 MEMB     185      SAPS     N        NH3L    -0.300000       14.0070           0
     21259 MEMB     185      SAPS     HN1      HCL      0.330000       1.00800           0
     21260 MEMB     185      SAPS     HN2      HCL      0.330000       1.00800           0
     21261 MEMB     185      SAPS     HN3      HCL      0.330000       1.00800           0
     21262 MEMB     185      SAPS     C12      CTL1     0.210000       12.0110           0
     21263 MEMB     185      SAPS     H12A     HBL      0.100000       1.00800           0
     21264 MEMB     185      SAPS     C13      CCL      0.340000       12.0110           0
     21265 MEMB     185      SAPS     O13A     OCL     -0.670000       15.9994           0
     21266 MEMB     185      SAPS     O13B     OCL     -0.670000       15.9994           0
     21267 MEMB     185      SAPS     C11      CTL2    -0.800000E-01   12.0110           0
     21268 MEMB     185      SAPS     H11A     HAL2     0.900000E-01   1.00800           0
     21269 MEMB     185      SAPS     H11B     HAL2     0.900000E-01   1.00800           0
     21270 MEMB     185      SAPS     P        PL        1.50000       30.9740           0
     21271 MEMB     185      SAPS     O13      O2L     -0.780000       15.9994           0
     21272 MEMB     185      SAPS     O14      O2L     -0.780000       15.9994           0
     21273 MEMB     185      SAPS     O12      OSLP    -0.570000       15.9994           0
     21274 MEMB     185      SAPS     O11      OSLP    -0.570000       15.9994           0
     21275 MEMB     185      SAPS     C1       CTL2    -0.800000E-01   12.0110           0
     21276 MEMB     185      SAPS     HA       HAL2     0.900000E-01   1.00800           0
     21277 MEMB     185      SAPS     HB       HAL2     0.900000E-01   1.00800           0
     21278 MEMB     185      SAPS     C2       CTL1     0.170000       12.0110           0
     21279 MEMB     185      SAPS     HS       HAL1     0.900000E-01   1.00800           0
     21280 MEMB     185      SAPS     O21      OSL     -0.490000       15.9994           0
     21281 MEMB     185      SAPS     C21      CL       0.900000       12.0110           0
     21282 MEMB     185      SAPS     O22      OBL     -0.630000       15.9994           0
     21283 MEMB     185      SAPS     C22      CTL2    -0.220000       12.0110           0
     21284 MEMB     185      SAPS     H2R      HAL2     0.900000E-01   1.00800           0
     21285 MEMB     185      SAPS     H2S      HAL2     0.900000E-01   1.00800           0
     21286 MEMB     185      SAPS     C3       CTL2     0.800000E-01   12.0110           0
     21287 MEMB     185      SAPS     HX       HAL2     0.900000E-01   1.00800           0
     21288 MEMB     185      SAPS     HY       HAL2     0.900000E-01   1.00800           0
     21289 MEMB     185      SAPS     O31      OSL     -0.490000       15.9994           0
     21290 MEMB     185      SAPS     C31      CL       0.900000       12.0110           0
     21291 MEMB     185      SAPS     O32      OBL     -0.630000       15.9994           0
     21292 MEMB     185      SAPS     C32      CTL2    -0.220000       12.0110           0
     21293 MEMB     185      SAPS     H2X      HAL2     0.900000E-01   1.00800           0
     21294 MEMB     185      SAPS     H2Y      HAL2     0.900000E-01   1.00800           0
     21295 MEMB     185      SAPS     C23      CTL2    -0.180000       12.0110           0
     21296 MEMB     185      SAPS     H3R      HAL2     0.900000E-01   1.00800           0
     21297 MEMB     185      SAPS     H3S      HAL2     0.900000E-01   1.00800           0
     21298 MEMB     185      SAPS     C24      CTL2    -0.180000       12.0110           0
     21299 MEMB     185      SAPS     H4R      HAL2     0.900000E-01   1.00800           0
     21300 MEMB     185      SAPS     H4S      HAL2     0.900000E-01   1.00800           0
     21301 MEMB     185      SAPS     C25      CEL1    -0.150000       12.0110           0
     21302 MEMB     185      SAPS     H5R      HEL1     0.150000       1.00800           0
     21303 MEMB     185      SAPS     C26      CEL1    -0.150000       12.0110           0
     21304 MEMB     185      SAPS     H6R      HEL1     0.150000       1.00800           0
     21305 MEMB     185      SAPS     C27      CTL2    -0.180000       12.0110           0
     21306 MEMB     185      SAPS     H7R      HAL2     0.900000E-01   1.00800           0
     21307 MEMB     185      SAPS     H7S      HAL2     0.900000E-01   1.00800           0
     21308 MEMB     185      SAPS     C28      CEL1    -0.150000       12.0110           0
     21309 MEMB     185      SAPS     H8R      HEL1     0.150000       1.00800           0
     21310 MEMB     185      SAPS     C29      CEL1    -0.150000       12.0110           0
     21311 MEMB     185      SAPS     H9R      HEL1     0.150000       1.00800           0
     21312 MEMB     185      SAPS     C210     CTL2    -0.180000       12.0110           0
     21313 MEMB     185      SAPS     H10R     HAL2     0.900000E-01   1.00800           0
     21314 MEMB     185      SAPS     H10S     HAL2     0.900000E-01   1.00800           0
     21315 MEMB     185      SAPS     C211     CEL1    -0.150000       12.0110           0
     21316 MEMB     185      SAPS     H11R     HEL1     0.150000       1.00800           0
     21317 MEMB     185      SAPS     C212     CEL1    -0.150000       12.0110           0
     21318 MEMB     185      SAPS     H12R     HEL1     0.150000       1.00800           0
     21319 MEMB     185      SAPS     C213     CTL2    -0.180000       12.0110           0
     21320 MEMB     185      SAPS     H13R     HAL2     0.900000E-01   1.00800           0
     21321 MEMB     185      SAPS     H13S     HAL2     0.900000E-01   1.00800           0
     21322 MEMB     185      SAPS     C214     CEL1    -0.150000       12.0110           0
     21323 MEMB     185      SAPS     H14R     HEL1     0.150000       1.00800           0
     21324 MEMB     185      SAPS     C215     CEL1    -0.150000       12.0110           0
     21325 MEMB     185      SAPS     H15R     HEL1     0.150000       1.00800           0
     21326 MEMB     185      SAPS     C216     CTL2    -0.180000       12.0110           0
     21327 MEMB     185      SAPS     H16R     HAL2     0.900000E-01   1.00800           0
     21328 MEMB     185      SAPS     H16S     HAL2     0.900000E-01   1.00800           0
     21329 MEMB     185      SAPS     C217     CTL2    -0.180000       12.0110           0
     21330 MEMB     185      SAPS     H17R     HAL2     0.900000E-01   1.00800           0
     21331 MEMB     185      SAPS     H17S     HAL2     0.900000E-01   1.00800           0
     21332 MEMB     185      SAPS     C218     CTL2    -0.180000       12.0110           0
     21333 MEMB     185      SAPS     H18R     HAL2     0.900000E-01   1.00800           0
     21334 MEMB     185      SAPS     H18S     HAL2     0.900000E-01   1.00800           0
     21335 MEMB     185      SAPS     C219     CTL2    -0.180000       12.0110           0
     21336 MEMB     185      SAPS     H19R     HAL2     0.900000E-01   1.00800           0
     21337 MEMB     185      SAPS     H19S     HAL2     0.900000E-01   1.00800           0
     21338 MEMB     185      SAPS     C220     CTL3    -0.270000       12.0110           0
     21339 MEMB     185      SAPS     H20R     HAL3     0.900000E-01   1.00800           0
     21340 MEMB     185      SAPS     H20S     HAL3     0.900000E-01   1.00800           0
     21341 MEMB     185      SAPS     H20T     HAL3     0.900000E-01   1.00800           0
     21342 MEMB     185      SAPS     C33      CTL2    -0.180000       12.0110           0
     21343 MEMB     185      SAPS     H3X      HAL2     0.900000E-01   1.00800           0
     21344 MEMB     185      SAPS     H3Y      HAL2     0.900000E-01   1.00800           0
     21345 MEMB     185      SAPS     C34      CTL2    -0.180000       12.0110           0
     21346 MEMB     185      SAPS     H4X      HAL2     0.900000E-01   1.00800           0
     21347 MEMB     185      SAPS     H4Y      HAL2     0.900000E-01   1.00800           0
     21348 MEMB     185      SAPS     C35      CTL2    -0.180000       12.0110           0
     21349 MEMB     185      SAPS     H5X      HAL2     0.900000E-01   1.00800           0
     21350 MEMB     185      SAPS     H5Y      HAL2     0.900000E-01   1.00800           0
     21351 MEMB     185      SAPS     C36      CTL2    -0.180000       12.0110           0
     21352 MEMB     185      SAPS     H6X      HAL2     0.900000E-01   1.00800           0
     21353 MEMB     185      SAPS     H6Y      HAL2     0.900000E-01   1.00800           0
     21354 MEMB     185      SAPS     C37      CTL2    -0.180000       12.0110           0
     21355 MEMB     185      SAPS     H7X      HAL2     0.900000E-01   1.00800           0
     21356 MEMB     185      SAPS     H7Y      HAL2     0.900000E-01   1.00800           0
     21357 MEMB     185      SAPS     C38      CTL2    -0.180000       12.0110           0
     21358 MEMB     185      SAPS     H8X      HAL2     0.900000E-01   1.00800           0
     21359 MEMB     185      SAPS     H8Y      HAL2     0.900000E-01   1.00800           0
     21360 MEMB     185      SAPS     C39      CTL2    -0.180000       12.0110           0
     21361 MEMB     185      SAPS     H9X      HAL2     0.900000E-01   1.00800           0
     21362 MEMB     185      SAPS     H9Y      HAL2     0.900000E-01   1.00800           0
     21363 MEMB     185      SAPS     C310     CTL2    -0.180000       12.0110           0
     21364 MEMB     185      SAPS     H10X     HAL2     0.900000E-01   1.00800           0
     21365 MEMB     185      SAPS     H10Y     HAL2     0.900000E-01   1.00800           0
     21366 MEMB     185      SAPS     C311     CTL2    -0.180000       12.0110           0
     21367 MEMB     185      SAPS     H11X     HAL2     0.900000E-01   1.00800           0
     21368 MEMB     185      SAPS     H11Y     HAL2     0.900000E-01   1.00800           0
     21369 MEMB     185      SAPS     C312     CTL2    -0.180000       12.0110           0
     21370 MEMB     185      SAPS     H12X     HAL2     0.900000E-01   1.00800           0
     21371 MEMB     185      SAPS     H12Y     HAL2     0.900000E-01   1.00800           0
     21372 MEMB     185      SAPS     C313     CTL2    -0.180000       12.0110           0
     21373 MEMB     185      SAPS     H13X     HAL2     0.900000E-01   1.00800           0
     21374 MEMB     185      SAPS     H13Y     HAL2     0.900000E-01   1.00800           0
     21375 MEMB     185      SAPS     C314     CTL2    -0.180000       12.0110           0
     21376 MEMB     185      SAPS     H14X     HAL2     0.900000E-01   1.00800           0
     21377 MEMB     185      SAPS     H14Y     HAL2     0.900000E-01   1.00800           0
     21378 MEMB     185      SAPS     C315     CTL2    -0.180000       12.0110           0
     21379 MEMB     185      SAPS     H15X     HAL2     0.900000E-01   1.00800           0
     21380 MEMB     185      SAPS     H15Y     HAL2     0.900000E-01   1.00800           0
     21381 MEMB     185      SAPS     C316     CTL2    -0.180000       12.0110           0
     21382 MEMB     185      SAPS     H16X     HAL2     0.900000E-01   1.00800           0
     21383 MEMB     185      SAPS     H16Y     HAL2     0.900000E-01   1.00800           0
     21384 MEMB     185      SAPS     C317     CTL2    -0.180000       12.0110           0
     21385 MEMB     185      SAPS     H17X     HAL2     0.900000E-01   1.00800           0
     21386 MEMB     185      SAPS     H17Y     HAL2     0.900000E-01   1.00800           0
     21387 MEMB     185      SAPS     C318     CTL3    -0.270000       12.0110           0
     21388 MEMB     185      SAPS     H18X     HAL3     0.900000E-01   1.00800           0
     21389 MEMB     185      SAPS     H18Y     HAL3     0.900000E-01   1.00800           0
     21390 MEMB     185      SAPS     H18Z     HAL3     0.900000E-01   1.00800           0
     21391 MEMB     186      SAPS     N        NH3L    -0.300000       14.0070           0
     21392 MEMB     186      SAPS     HN1      HCL      0.330000       1.00800           0
     21393 MEMB     186      SAPS     HN2      HCL      0.330000       1.00800           0
     21394 MEMB     186      SAPS     HN3      HCL      0.330000       1.00800           0
     21395 MEMB     186      SAPS     C12      CTL1     0.210000       12.0110           0
     21396 MEMB     186      SAPS     H12A     HBL      0.100000       1.00800           0
     21397 MEMB     186      SAPS     C13      CCL      0.340000       12.0110           0
     21398 MEMB     186      SAPS     O13A     OCL     -0.670000       15.9994           0
     21399 MEMB     186      SAPS     O13B     OCL     -0.670000       15.9994           0
     21400 MEMB     186      SAPS     C11      CTL2    -0.800000E-01   12.0110           0
     21401 MEMB     186      SAPS     H11A     HAL2     0.900000E-01   1.00800           0
     21402 MEMB     186      SAPS     H11B     HAL2     0.900000E-01   1.00800           0
     21403 MEMB     186      SAPS     P        PL        1.50000       30.9740           0
     21404 MEMB     186      SAPS     O13      O2L     -0.780000       15.9994           0
     21405 MEMB     186      SAPS     O14      O2L     -0.780000       15.9994           0
     21406 MEMB     186      SAPS     O12      OSLP    -0.570000       15.9994           0
     21407 MEMB     186      SAPS     O11      OSLP    -0.570000       15.9994           0
     21408 MEMB     186      SAPS     C1       CTL2    -0.800000E-01   12.0110           0
     21409 MEMB     186      SAPS     HA       HAL2     0.900000E-01   1.00800           0
     21410 MEMB     186      SAPS     HB       HAL2     0.900000E-01   1.00800           0
     21411 MEMB     186      SAPS     C2       CTL1     0.170000       12.0110           0
     21412 MEMB     186      SAPS     HS       HAL1     0.900000E-01   1.00800           0
     21413 MEMB     186      SAPS     O21      OSL     -0.490000       15.9994           0
     21414 MEMB     186      SAPS     C21      CL       0.900000       12.0110           0
     21415 MEMB     186      SAPS     O22      OBL     -0.630000       15.9994           0
     21416 MEMB     186      SAPS     C22      CTL2    -0.220000       12.0110           0
     21417 MEMB     186      SAPS     H2R      HAL2     0.900000E-01   1.00800           0
     21418 MEMB     186      SAPS     H2S      HAL2     0.900000E-01   1.00800           0
     21419 MEMB     186      SAPS     C3       CTL2     0.800000E-01   12.0110           0
     21420 MEMB     186      SAPS     HX       HAL2     0.900000E-01   1.00800           0
     21421 MEMB     186      SAPS     HY       HAL2     0.900000E-01   1.00800           0
     21422 MEMB     186      SAPS     O31      OSL     -0.490000       15.9994           0
     21423 MEMB     186      SAPS     C31      CL       0.900000       12.0110           0
     21424 MEMB     186      SAPS     O32      OBL     -0.630000       15.9994           0
     21425 MEMB     186      SAPS     C32      CTL2    -0.220000       12.0110           0
     21426 MEMB     186      SAPS     H2X      HAL2     0.900000E-01   1.00800           0
     21427 MEMB     186      SAPS     H2Y      HAL2     0.900000E-01   1.00800           0
     21428 MEMB     186      SAPS     C23      CTL2    -0.180000       12.0110           0
     21429 MEMB     186      SAPS     H3R      HAL2     0.900000E-01   1.00800           0
     21430 MEMB     186      SAPS     H3S      HAL2     0.900000E-01   1.00800           0
     21431 MEMB     186      SAPS     C24      CTL2    -0.180000       12.0110           0
     21432 MEMB     186      SAPS     H4R      HAL2     0.900000E-01   1.00800           0
     21433 MEMB     186      SAPS     H4S      HAL2     0.900000E-01   1.00800           0
     21434 MEMB     186      SAPS     C25      CEL1    -0.150000       12.0110           0
     21435 MEMB     186      SAPS     H5R      HEL1     0.150000       1.00800           0
     21436 MEMB     186      SAPS     C26      CEL1    -0.150000       12.0110           0
     21437 MEMB     186      SAPS     H6R      HEL1     0.150000       1.00800           0
     21438 MEMB     186      SAPS     C27      CTL2    -0.180000       12.0110           0
     21439 MEMB     186      SAPS     H7R      HAL2     0.900000E-01   1.00800           0
     21440 MEMB     186      SAPS     H7S      HAL2     0.900000E-01   1.00800           0
     21441 MEMB     186      SAPS     C28      CEL1    -0.150000       12.0110           0
     21442 MEMB     186      SAPS     H8R      HEL1     0.150000       1.00800           0
     21443 MEMB     186      SAPS     C29      CEL1    -0.150000       12.0110           0
     21444 MEMB     186      SAPS     H9R      HEL1     0.150000       1.00800           0
     21445 MEMB     186      SAPS     C210     CTL2    -0.180000       12.0110           0
     21446 MEMB     186      SAPS     H10R     HAL2     0.900000E-01   1.00800           0
     21447 MEMB     186      SAPS     H10S     HAL2     0.900000E-01   1.00800           0
     21448 MEMB     186      SAPS     C211     CEL1    -0.150000       12.0110           0
     21449 MEMB     186      SAPS     H11R     HEL1     0.150000       1.00800           0
     21450 MEMB     186      SAPS     C212     CEL1    -0.150000       12.0110           0
     21451 MEMB     186      SAPS     H12R     HEL1     0.150000       1.00800           0
     21452 MEMB     186      SAPS     C213     CTL2    -0.180000       12.0110           0
     21453 MEMB     186      SAPS     H13R     HAL2     0.900000E-01   1.00800           0
     21454 MEMB     186      SAPS     H13S     HAL2     0.900000E-01   1.00800           0
     21455 MEMB     186      SAPS     C214     CEL1    -0.150000       12.0110           0
     21456 MEMB     186      SAPS     H14R     HEL1     0.150000       1.00800           0
     21457 MEMB     186      SAPS     C215     CEL1    -0.150000       12.0110           0
     21458 MEMB     186      SAPS     H15R     HEL1     0.150000       1.00800           0
     21459 MEMB     186      SAPS     C216     CTL2    -0.180000       12.0110           0
     21460 MEMB     186      SAPS     H16R     HAL2     0.900000E-01   1.00800           0
     21461 MEMB     186      SAPS     H16S     HAL2     0.900000E-01   1.00800           0
     21462 MEMB     186      SAPS     C217     CTL2    -0.180000       12.0110           0
     21463 MEMB     186      SAPS     H17R     HAL2     0.900000E-01   1.00800           0
     21464 MEMB     186      SAPS     H17S     HAL2     0.900000E-01   1.00800           0
     21465 MEMB     186      SAPS     C218     CTL2    -0.180000       12.0110           0
     21466 MEMB     186      SAPS     H18R     HAL2     0.900000E-01   1.00800           0
     21467 MEMB     186      SAPS     H18S     HAL2     0.900000E-01   1.00800           0
     21468 MEMB     186      SAPS     C219     CTL2    -0.180000       12.0110           0
     21469 MEMB     186      SAPS     H19R     HAL2     0.900000E-01   1.00800           0
     21470 MEMB     186      SAPS     H19S     HAL2     0.900000E-01   1.00800           0
     21471 MEMB     186      SAPS     C220     CTL3    -0.270000       12.0110           0
     21472 MEMB     186      SAPS     H20R     HAL3     0.900000E-01   1.00800           0
     21473 MEMB     186      SAPS     H20S     HAL3     0.900000E-01   1.00800           0
     21474 MEMB     186      SAPS     H20T     HAL3     0.900000E-01   1.00800           0
     21475 MEMB     186      SAPS     C33      CTL2    -0.180000       12.0110           0
     21476 MEMB     186      SAPS     H3X      HAL2     0.900000E-01   1.00800           0
     21477 MEMB     186      SAPS     H3Y      HAL2     0.900000E-01   1.00800           0
     21478 MEMB     186      SAPS     C34      CTL2    -0.180000       12.0110           0
     21479 MEMB     186      SAPS     H4X      HAL2     0.900000E-01   1.00800           0
     21480 MEMB     186      SAPS     H4Y      HAL2     0.900000E-01   1.00800           0
     21481 MEMB     186      SAPS     C35      CTL2    -0.180000       12.0110           0
     21482 MEMB     186      SAPS     H5X      HAL2     0.900000E-01   1.00800           0
     21483 MEMB     186      SAPS     H5Y      HAL2     0.900000E-01   1.00800           0
     21484 MEMB     186      SAPS     C36      CTL2    -0.180000       12.0110           0
     21485 MEMB     186      SAPS     H6X      HAL2     0.900000E-01   1.00800           0
     21486 MEMB     186      SAPS     H6Y      HAL2     0.900000E-01   1.00800           0
     21487 MEMB     186      SAPS     C37      CTL2    -0.180000       12.0110           0
     21488 MEMB     186      SAPS     H7X      HAL2     0.900000E-01   1.00800           0
     21489 MEMB     186      SAPS     H7Y      HAL2     0.900000E-01   1.00800           0
     21490 MEMB     186      SAPS     C38      CTL2    -0.180000       12.0110           0
     21491 MEMB     186      SAPS     H8X      HAL2     0.900000E-01   1.00800           0
     21492 MEMB     186      SAPS     H8Y      HAL2     0.900000E-01   1.00800           0
     21493 MEMB     186      SAPS     C39      CTL2    -0.180000       12.0110           0
     21494 MEMB     186      SAPS     H9X      HAL2     0.900000E-01   1.00800           0
     21495 MEMB     186      SAPS     H9Y      HAL2     0.900000E-01   1.00800           0
     21496 MEMB     186      SAPS     C310     CTL2    -0.180000       12.0110           0
     21497 MEMB     186      SAPS     H10X     HAL2     0.900000E-01   1.00800           0
     21498 MEMB     186      SAPS     H10Y     HAL2     0.900000E-01   1.00800           0
     21499 MEMB     186      SAPS     C311     CTL2    -0.180000       12.0110           0
     21500 MEMB     186      SAPS     H11X     HAL2     0.900000E-01   1.00800           0
     21501 MEMB     186      SAPS     H11Y     HAL2     0.900000E-01   1.00800           0
     21502 MEMB     186      SAPS     C312     CTL2    -0.180000       12.0110           0
     21503 MEMB     186      SAPS     H12X     HAL2     0.900000E-01   1.00800           0
     21504 MEMB     186      SAPS     H12Y     HAL2     0.900000E-01   1.00800           0
     21505 MEMB     186      SAPS     C313     CTL2    -0.180000       12.0110           0
     21506 MEMB     186      SAPS     H13X     HAL2     0.900000E-01   1.00800           0
     21507 MEMB     186      SAPS     H13Y     HAL2     0.900000E-01   1.00800           0
     21508 MEMB     186      SAPS     C314     CTL2    -0.180000       12.0110           0
     21509 MEMB     186      SAPS     H14X     HAL2     0.900000E-01   1.00800           0
     21510 MEMB     186      SAPS     H14Y     HAL2     0.900000E-01   1.00800           0
     21511 MEMB     186      SAPS     C315     CTL2    -0.180000       12.0110           0
     21512 MEMB     186      SAPS     H15X     HAL2     0.900000E-01   1.00800           0
     21513 MEMB     186      SAPS     H15Y     HAL2     0.900000E-01   1.00800           0
     21514 MEMB     186      SAPS     C316     CTL2    -0.180000       12.0110           0
     21515 MEMB     186      SAPS     H16X     HAL2     0.900000E-01   1.00800           0
     21516 MEMB     186      SAPS     H16Y     HAL2     0.900000E-01   1.00800           0
     21517 MEMB     186      SAPS     C317     CTL2    -0.180000       12.0110           0
     21518 MEMB     186      SAPS     H17X     HAL2     0.900000E-01   1.00800           0
     21519 MEMB     186      SAPS     H17Y     HAL2     0.900000E-01   1.00800           0
     21520 MEMB     186      SAPS     C318     CTL3    -0.270000       12.0110           0
     21521 MEMB     186      SAPS     H18X     HAL3     0.900000E-01   1.00800           0
     21522 MEMB     186      SAPS     H18Y     HAL3     0.900000E-01   1.00800           0
     21523 MEMB     186      SAPS     H18Z     HAL3     0.900000E-01   1.00800           0
     21524 MEMB     187      SAPE     N        NH3L    -0.300000       14.0070           0
     21525 MEMB     187      SAPE     HN1      HCL      0.330000       1.00800           0
     21526 MEMB     187      SAPE     HN2      HCL      0.330000       1.00800           0
     21527 MEMB     187      SAPE     HN3      HCL      0.330000       1.00800           0
     21528 MEMB     187      SAPE     C12      CTL2     0.130000       12.0110           0
     21529 MEMB     187      SAPE     H12A     HAL2     0.900000E-01   1.00800           0
     21530 MEMB     187      SAPE     H12B     HAL2     0.900000E-01   1.00800           0
     21531 MEMB     187      SAPE     C11      CTL2    -0.800000E-01   12.0110           0
     21532 MEMB     187      SAPE     H11A     HAL2     0.900000E-01   1.00800           0
     21533 MEMB     187      SAPE     H11B     HAL2     0.900000E-01   1.00800           0
     21534 MEMB     187      SAPE     P        PL        1.50000       30.9740           0
     21535 MEMB     187      SAPE     O13      O2L     -0.780000       15.9994           0
     21536 MEMB     187      SAPE     O14      O2L     -0.780000       15.9994           0
     21537 MEMB     187      SAPE     O12      OSLP    -0.570000       15.9994           0
     21538 MEMB     187      SAPE     O11      OSLP    -0.570000       15.9994           0
     21539 MEMB     187      SAPE     C1       CTL2    -0.800000E-01   12.0110           0
     21540 MEMB     187      SAPE     HA       HAL2     0.900000E-01   1.00800           0
     21541 MEMB     187      SAPE     HB       HAL2     0.900000E-01   1.00800           0
     21542 MEMB     187      SAPE     C2       CTL1     0.170000       12.0110           0
     21543 MEMB     187      SAPE     HS       HAL1     0.900000E-01   1.00800           0
     21544 MEMB     187      SAPE     O21      OSL     -0.490000       15.9994           0
     21545 MEMB     187      SAPE     C21      CL       0.900000       12.0110           0
     21546 MEMB     187      SAPE     O22      OBL     -0.630000       15.9994           0
     21547 MEMB     187      SAPE     C22      CTL2    -0.220000       12.0110           0
     21548 MEMB     187      SAPE     H2R      HAL2     0.900000E-01   1.00800           0
     21549 MEMB     187      SAPE     H2S      HAL2     0.900000E-01   1.00800           0
     21550 MEMB     187      SAPE     C3       CTL2     0.800000E-01   12.0110           0
     21551 MEMB     187      SAPE     HX       HAL2     0.900000E-01   1.00800           0
     21552 MEMB     187      SAPE     HY       HAL2     0.900000E-01   1.00800           0
     21553 MEMB     187      SAPE     O31      OSL     -0.490000       15.9994           0
     21554 MEMB     187      SAPE     C31      CL       0.900000       12.0110           0
     21555 MEMB     187      SAPE     O32      OBL     -0.630000       15.9994           0
     21556 MEMB     187      SAPE     C32      CTL2    -0.220000       12.0110           0
     21557 MEMB     187      SAPE     H2X      HAL2     0.900000E-01   1.00800           0
     21558 MEMB     187      SAPE     H2Y      HAL2     0.900000E-01   1.00800           0
     21559 MEMB     187      SAPE     C23      CTL2    -0.180000       12.0110           0
     21560 MEMB     187      SAPE     H3R      HAL2     0.900000E-01   1.00800           0
     21561 MEMB     187      SAPE     H3S      HAL2     0.900000E-01   1.00800           0
     21562 MEMB     187      SAPE     C24      CTL2    -0.180000       12.0110           0
     21563 MEMB     187      SAPE     H4R      HAL2     0.900000E-01   1.00800           0
     21564 MEMB     187      SAPE     H4S      HAL2     0.900000E-01   1.00800           0
     21565 MEMB     187      SAPE     C25      CEL1    -0.150000       12.0110           0
     21566 MEMB     187      SAPE     H5R      HEL1     0.150000       1.00800           0
     21567 MEMB     187      SAPE     C26      CEL1    -0.150000       12.0110           0
     21568 MEMB     187      SAPE     H6R      HEL1     0.150000       1.00800           0
     21569 MEMB     187      SAPE     C27      CTL2    -0.180000       12.0110           0
     21570 MEMB     187      SAPE     H7R      HAL2     0.900000E-01   1.00800           0
     21571 MEMB     187      SAPE     H7S      HAL2     0.900000E-01   1.00800           0
     21572 MEMB     187      SAPE     C28      CEL1    -0.150000       12.0110           0
     21573 MEMB     187      SAPE     H8R      HEL1     0.150000       1.00800           0
     21574 MEMB     187      SAPE     C29      CEL1    -0.150000       12.0110           0
     21575 MEMB     187      SAPE     H9R      HEL1     0.150000       1.00800           0
     21576 MEMB     187      SAPE     C210     CTL2    -0.180000       12.0110           0
     21577 MEMB     187      SAPE     H10R     HAL2     0.900000E-01   1.00800           0
     21578 MEMB     187      SAPE     H10S     HAL2     0.900000E-01   1.00800           0
     21579 MEMB     187      SAPE     C211     CEL1    -0.150000       12.0110           0
     21580 MEMB     187      SAPE     H11R     HEL1     0.150000       1.00800           0
     21581 MEMB     187      SAPE     C212     CEL1    -0.150000       12.0110           0
     21582 MEMB     187      SAPE     H12R     HEL1     0.150000       1.00800           0
     21583 MEMB     187      SAPE     C213     CTL2    -0.180000       12.0110           0
     21584 MEMB     187      SAPE     H13R     HAL2     0.900000E-01   1.00800           0
     21585 MEMB     187      SAPE     H13S     HAL2     0.900000E-01   1.00800           0
     21586 MEMB     187      SAPE     C214     CEL1    -0.150000       12.0110           0
     21587 MEMB     187      SAPE     H14R     HEL1     0.150000       1.00800           0
     21588 MEMB     187      SAPE     C215     CEL1    -0.150000       12.0110           0
     21589 MEMB     187      SAPE     H15R     HEL1     0.150000       1.00800           0
     21590 MEMB     187      SAPE     C216     CTL2    -0.180000       12.0110           0
     21591 MEMB     187      SAPE     H16R     HAL2     0.900000E-01   1.00800           0
     21592 MEMB     187      SAPE     H16S     HAL2     0.900000E-01   1.00800           0
     21593 MEMB     187      SAPE     C217     CTL2    -0.180000       12.0110           0
     21594 MEMB     187      SAPE     H17R     HAL2     0.900000E-01   1.00800           0
     21595 MEMB     187      SAPE     H17S     HAL2     0.900000E-01   1.00800           0
     21596 MEMB     187      SAPE     C218     CTL2    -0.180000       12.0110           0
     21597 MEMB     187      SAPE     H18R     HAL2     0.900000E-01   1.00800           0
     21598 MEMB     187      SAPE     H18S     HAL2     0.900000E-01   1.00800           0
     21599 MEMB     187      SAPE     C219     CTL2    -0.180000       12.0110           0
     21600 MEMB     187      SAPE     H19R     HAL2     0.900000E-01   1.00800           0
     21601 MEMB     187      SAPE     H19S     HAL2     0.900000E-01   1.00800           0
     21602 MEMB     187      SAPE     C220     CTL3    -0.270000       12.0110           0
     21603 MEMB     187      SAPE     H20R     HAL3     0.900000E-01   1.00800           0
     21604 MEMB     187      SAPE     H20S     HAL3     0.900000E-01   1.00800           0
     21605 MEMB     187      SAPE     H20T     HAL3     0.900000E-01   1.00800           0
     21606 MEMB     187      SAPE     C33      CTL2    -0.180000       12.0110           0
     21607 MEMB     187      SAPE     H3X      HAL2     0.900000E-01   1.00800           0
     21608 MEMB     187      SAPE     H3Y      HAL2     0.900000E-01   1.00800           0
     21609 MEMB     187      SAPE     C34      CTL2    -0.180000       12.0110           0
     21610 MEMB     187      SAPE     H4X      HAL2     0.900000E-01   1.00800           0
     21611 MEMB     187      SAPE     H4Y      HAL2     0.900000E-01   1.00800           0
     21612 MEMB     187      SAPE     C35      CTL2    -0.180000       12.0110           0
     21613 MEMB     187      SAPE     H5X      HAL2     0.900000E-01   1.00800           0
     21614 MEMB     187      SAPE     H5Y      HAL2     0.900000E-01   1.00800           0
     21615 MEMB     187      SAPE     C36      CTL2    -0.180000       12.0110           0
     21616 MEMB     187      SAPE     H6X      HAL2     0.900000E-01   1.00800           0
     21617 MEMB     187      SAPE     H6Y      HAL2     0.900000E-01   1.00800           0
     21618 MEMB     187      SAPE     C37      CTL2    -0.180000       12.0110           0
     21619 MEMB     187      SAPE     H7X      HAL2     0.900000E-01   1.00800           0
     21620 MEMB     187      SAPE     H7Y      HAL2     0.900000E-01   1.00800           0
     21621 MEMB     187      SAPE     C38      CTL2    -0.180000       12.0110           0
     21622 MEMB     187      SAPE     H8X      HAL2     0.900000E-01   1.00800           0
     21623 MEMB     187      SAPE     H8Y      HAL2     0.900000E-01   1.00800           0
     21624 MEMB     187      SAPE     C39      CTL2    -0.180000       12.0110           0
     21625 MEMB     187      SAPE     H9X      HAL2     0.900000E-01   1.00800           0
     21626 MEMB     187      SAPE     H9Y      HAL2     0.900000E-01   1.00800           0
     21627 MEMB     187      SAPE     C310     CTL2    -0.180000       12.0110           0
     21628 MEMB     187      SAPE     H10X     HAL2     0.900000E-01   1.00800           0
     21629 MEMB     187      SAPE     H10Y     HAL2     0.900000E-01   1.00800           0
     21630 MEMB     187      SAPE     C311     CTL2    -0.180000       12.0110           0
     21631 MEMB     187      SAPE     H11X     HAL2     0.900000E-01   1.00800           0
     21632 MEMB     187      SAPE     H11Y     HAL2     0.900000E-01   1.00800           0
     21633 MEMB     187      SAPE     C312     CTL2    -0.180000       12.0110           0
     21634 MEMB     187      SAPE     H12X     HAL2     0.900000E-01   1.00800           0
     21635 MEMB     187      SAPE     H12Y     HAL2     0.900000E-01   1.00800           0
     21636 MEMB     187      SAPE     C313     CTL2    -0.180000       12.0110           0
     21637 MEMB     187      SAPE     H13X     HAL2     0.900000E-01   1.00800           0
     21638 MEMB     187      SAPE     H13Y     HAL2     0.900000E-01   1.00800           0
     21639 MEMB     187      SAPE     C314     CTL2    -0.180000       12.0110           0
     21640 MEMB     187      SAPE     H14X     HAL2     0.900000E-01   1.00800           0
     21641 MEMB     187      SAPE     H14Y     HAL2     0.900000E-01   1.00800           0
     21642 MEMB     187      SAPE     C315     CTL2    -0.180000       12.0110           0
     21643 MEMB     187      SAPE     H15X     HAL2     0.900000E-01   1.00800           0
     21644 MEMB     187      SAPE     H15Y     HAL2     0.900000E-01   1.00800           0
     21645 MEMB     187      SAPE     C316     CTL2    -0.180000       12.0110           0
     21646 MEMB     187      SAPE     H16X     HAL2     0.900000E-01   1.00800           0
     21647 MEMB     187      SAPE     H16Y     HAL2     0.900000E-01   1.00800           0
     21648 MEMB     187      SAPE     C317     CTL2    -0.180000       12.0110           0
     21649 MEMB     187      SAPE     H17X     HAL2     0.900000E-01   1.00800           0
     21650 MEMB     187      SAPE     H17Y     HAL2     0.900000E-01   1.00800           0
     21651 MEMB     187      SAPE     C318     CTL3    -0.270000       12.0110           0
     21652 MEMB     187      SAPE     H18X     HAL3     0.900000E-01   1.00800           0
     21653 MEMB     187      SAPE     H18Y     HAL3     0.900000E-01   1.00800           0
     21654 MEMB     187      SAPE     H18Z     HAL3     0.900000E-01   1.00800           0
     21655 MEMB     188      OSM      N        NTL     -0.600000       14.0070           0
     21656 MEMB     188      OSM      C15      CTL5    -0.350000       12.0110           0
     21657 MEMB     188      OSM      H15A     HL       0.250000       1.00800           0
     21658 MEMB     188      OSM      H15B     HL       0.250000       1.00800           0
     21659 MEMB     188      OSM      H15C     HL       0.250000       1.00800           0
     21660 MEMB     188      OSM      C14      CTL5    -0.350000       12.0110           0
     21661 MEMB     188      OSM      H14A     HL       0.250000       1.00800           0
     21662 MEMB     188      OSM      H14B     HL       0.250000       1.00800           0
     21663 MEMB     188      OSM      H14C     HL       0.250000       1.00800           0
     21664 MEMB     188      OSM      C13      CTL5    -0.350000       12.0110           0
     21665 MEMB     188      OSM      H13A     HL       0.250000       1.00800           0
     21666 MEMB     188      OSM      H13B     HL       0.250000       1.00800           0
     21667 MEMB     188      OSM      H13C     HL       0.250000       1.00800           0
     21668 MEMB     188      OSM      C12      CTL2    -0.100000       12.0110           0
     21669 MEMB     188      OSM      H12A     HL       0.250000       1.00800           0
     21670 MEMB     188      OSM      H12B     HL       0.250000       1.00800           0
     21671 MEMB     188      OSM      C11      CTL2    -0.800000E-01   12.0110           0
     21672 MEMB     188      OSM      H11A     HAL2     0.900000E-01   1.00800           0
     21673 MEMB     188      OSM      H11B     HAL2     0.900000E-01   1.00800           0
     21674 MEMB     188      OSM      P        PL        1.50000       30.9740           0
     21675 MEMB     188      OSM      O13      O2L     -0.780000       15.9994           0
     21676 MEMB     188      OSM      O14      O2L     -0.780000       15.9994           0
     21677 MEMB     188      OSM      O11      OSLP    -0.570000       15.9994           0
     21678 MEMB     188      OSM      O12      OSLP    -0.570000       15.9994           0
     21679 MEMB     188      OSM      C1S      CTL2    -0.800000E-01   12.0110           0
     21680 MEMB     188      OSM      H1S      HAL2     0.900000E-01   1.00800           0
     21681 MEMB     188      OSM      H1T      HAL2     0.900000E-01   1.00800           0
     21682 MEMB     188      OSM      NF       NHL     -0.700000       14.0070           0
     21683 MEMB     188      OSM      HNF      H        0.350000       1.00800           0
     21684 MEMB     188      OSM      C2S      CTL1     0.300000       12.0110           0
     21685 MEMB     188      OSM      H2S      HAL1     0.500000E-01   1.00800           0
     21686 MEMB     188      OSM      C3S      CTO1     0.500000       12.0110           0
     21687 MEMB     188      OSM      H3S      HAL1    -0.110000       1.00800           0
     21688 MEMB     188      OSM      O3       OHL     -0.690000       15.9994           0
     21689 MEMB     188      OSM      HO3      HOL      0.300000       1.00800           0
     21690 MEMB     188      OSM      C4S      CEL3    -0.150000       12.0110           0
     21691 MEMB     188      OSM      H4S      HEL1     0.150000       1.00800           0
     21692 MEMB     188      OSM      C5S      CEL3    -0.150000       12.0110           0
     21693 MEMB     188      OSM      H5S      HEL1     0.150000       1.00800           0
     21694 MEMB     188      OSM      C6S      CTL2    -0.180000       12.0110           0
     21695 MEMB     188      OSM      H6S      HAL2     0.900000E-01   1.00800           0
     21696 MEMB     188      OSM      H6T      HAL2     0.900000E-01   1.00800           0
     21697 MEMB     188      OSM      C7S      CTL2    -0.180000       12.0110           0
     21698 MEMB     188      OSM      H7S      HAL2     0.900000E-01   1.00800           0
     21699 MEMB     188      OSM      H7T      HAL2     0.900000E-01   1.00800           0
     21700 MEMB     188      OSM      C8S      CTL2    -0.180000       12.0110           0
     21701 MEMB     188      OSM      H8S      HAL2     0.900000E-01   1.00800           0
     21702 MEMB     188      OSM      H8T      HAL2     0.900000E-01   1.00800           0
     21703 MEMB     188      OSM      C9S      CTL2    -0.180000       12.0110           0
     21704 MEMB     188      OSM      H9S      HAL2     0.900000E-01   1.00800           0
     21705 MEMB     188      OSM      H9T      HAL2     0.900000E-01   1.00800           0
     21706 MEMB     188      OSM      C10S     CTL2    -0.180000       12.0110           0
     21707 MEMB     188      OSM      H10S     HAL2     0.900000E-01   1.00800           0
     21708 MEMB     188      OSM      H10T     HAL2     0.900000E-01   1.00800           0
     21709 MEMB     188      OSM      C11S     CTL2    -0.180000       12.0110           0
     21710 MEMB     188      OSM      H11S     HAL2     0.900000E-01   1.00800           0
     21711 MEMB     188      OSM      H11T     HAL2     0.900000E-01   1.00800           0
     21712 MEMB     188      OSM      C12S     CTL2    -0.180000       12.0110           0
     21713 MEMB     188      OSM      H12S     HAL2     0.900000E-01   1.00800           0
     21714 MEMB     188      OSM      H12T     HAL2     0.900000E-01   1.00800           0
     21715 MEMB     188      OSM      C13S     CTL2    -0.180000       12.0110           0
     21716 MEMB     188      OSM      H13S     HAL2     0.900000E-01   1.00800           0
     21717 MEMB     188      OSM      H13T     HAL2     0.900000E-01   1.00800           0
     21718 MEMB     188      OSM      C14S     CTL2    -0.180000       12.0110           0
     21719 MEMB     188      OSM      H14S     HAL2     0.900000E-01   1.00800           0
     21720 MEMB     188      OSM      H14T     HAL2     0.900000E-01   1.00800           0
     21721 MEMB     188      OSM      C15S     CTL2    -0.180000       12.0110           0
     21722 MEMB     188      OSM      H15S     HAL2     0.900000E-01   1.00800           0
     21723 MEMB     188      OSM      H15T     HAL2     0.900000E-01   1.00800           0
     21724 MEMB     188      OSM      C16S     CTL2    -0.180000       12.0110           0
     21725 MEMB     188      OSM      H16S     HAL2     0.900000E-01   1.00800           0
     21726 MEMB     188      OSM      H16T     HAL2     0.900000E-01   1.00800           0
     21727 MEMB     188      OSM      C17S     CTL2    -0.180000       12.0110           0
     21728 MEMB     188      OSM      H17S     HAL2     0.900000E-01   1.00800           0
     21729 MEMB     188      OSM      H17T     HAL2     0.900000E-01   1.00800           0
     21730 MEMB     188      OSM      C18S     CTL3    -0.270000       12.0110           0
     21731 MEMB     188      OSM      H18S     HAL3     0.900000E-01   1.00800           0
     21732 MEMB     188      OSM      H18T     HAL3     0.900000E-01   1.00800           0
     21733 MEMB     188      OSM      H18U     HAL3     0.900000E-01   1.00800           0
     21734 MEMB     188      OSM      C1F      C        0.550000       12.0110           0
     21735 MEMB     188      OSM      OF       O       -0.600000       15.9994           0
     21736 MEMB     188      OSM      C2F      CTL2    -0.700000E-01   12.0110           0
     21737 MEMB     188      OSM      H2F      HAL2     0.600000E-01   1.00800           0
     21738 MEMB     188      OSM      H2G      HAL2     0.600000E-01   1.00800           0
     21739 MEMB     188      OSM      C3F      CTL2    -0.180000       12.0110           0
     21740 MEMB     188      OSM      H3F      HAL2     0.900000E-01   1.00800           0
     21741 MEMB     188      OSM      H3G      HAL2     0.900000E-01   1.00800           0
     21742 MEMB     188      OSM      C4F      CTL2    -0.180000       12.0110           0
     21743 MEMB     188      OSM      H4F      HAL2     0.900000E-01   1.00800           0
     21744 MEMB     188      OSM      H4G      HAL2     0.900000E-01   1.00800           0
     21745 MEMB     188      OSM      C5F      CTL2    -0.180000       12.0110           0
     21746 MEMB     188      OSM      H5F      HAL2     0.900000E-01   1.00800           0
     21747 MEMB     188      OSM      H5G      HAL2     0.900000E-01   1.00800           0
     21748 MEMB     188      OSM      C6F      CTL2    -0.180000       12.0110           0
     21749 MEMB     188      OSM      H6F      HAL2     0.900000E-01   1.00800           0
     21750 MEMB     188      OSM      H6G      HAL2     0.900000E-01   1.00800           0
     21751 MEMB     188      OSM      C7F      CTL2    -0.180000       12.0110           0
     21752 MEMB     188      OSM      H7F      HAL2     0.900000E-01   1.00800           0
     21753 MEMB     188      OSM      H7G      HAL2     0.900000E-01   1.00800           0
     21754 MEMB     188      OSM      C8F      CTL2    -0.180000       12.0110           0
     21755 MEMB     188      OSM      H8F      HAL2     0.900000E-01   1.00800           0
     21756 MEMB     188      OSM      H8G      HAL2     0.900000E-01   1.00800           0
     21757 MEMB     188      OSM      C9F      CEL1    -0.150000       12.0110           0
     21758 MEMB     188      OSM      H9F      HEL1     0.150000       1.00800           0
     21759 MEMB     188      OSM      C10F     CEL1    -0.150000       12.0110           0
     21760 MEMB     188      OSM      H10F     HEL1     0.150000       1.00800           0
     21761 MEMB     188      OSM      C11F     CTL2    -0.180000       12.0110           0
     21762 MEMB     188      OSM      H11F     HAL2     0.900000E-01   1.00800           0
     21763 MEMB     188      OSM      H11G     HAL2     0.900000E-01   1.00800           0
     21764 MEMB     188      OSM      C12F     CTL2    -0.180000       12.0110           0
     21765 MEMB     188      OSM      H12F     HAL2     0.900000E-01   1.00800           0
     21766 MEMB     188      OSM      H12G     HAL2     0.900000E-01   1.00800           0
     21767 MEMB     188      OSM      C13F     CTL2    -0.180000       12.0110           0
     21768 MEMB     188      OSM      H13F     HAL2     0.900000E-01   1.00800           0
     21769 MEMB     188      OSM      H13G     HAL2     0.900000E-01   1.00800           0
     21770 MEMB     188      OSM      C14F     CTL2    -0.180000       12.0110           0
     21771 MEMB     188      OSM      H14F     HAL2     0.900000E-01   1.00800           0
     21772 MEMB     188      OSM      H14G     HAL2     0.900000E-01   1.00800           0
     21773 MEMB     188      OSM      C15F     CTL2    -0.180000       12.0110           0
     21774 MEMB     188      OSM      H15F     HAL2     0.900000E-01   1.00800           0
     21775 MEMB     188      OSM      H15G     HAL2     0.900000E-01   1.00800           0
     21776 MEMB     188      OSM      C16F     CTL2    -0.180000       12.0110           0
     21777 MEMB     188      OSM      H16F     HAL2     0.900000E-01   1.00800           0
     21778 MEMB     188      OSM      H16G     HAL2     0.900000E-01   1.00800           0
     21779 MEMB     188      OSM      C17F     CTL2    -0.180000       12.0110           0
     21780 MEMB     188      OSM      H17F     HAL2     0.900000E-01   1.00800           0
     21781 MEMB     188      OSM      H17G     HAL2     0.900000E-01   1.00800           0
     21782 MEMB     188      OSM      C18F     CTL3    -0.270000       12.0110           0
     21783 MEMB     188      OSM      H18F     HAL3     0.900000E-01   1.00800           0
     21784 MEMB     188      OSM      H18G     HAL3     0.900000E-01   1.00800           0
     21785 MEMB     188      OSM      H18H     HAL3     0.900000E-01   1.00800           0
     21786 MEMB     189      OSM      N        NTL     -0.600000       14.0070           0
     21787 MEMB     189      OSM      C15      CTL5    -0.350000       12.0110           0
     21788 MEMB     189      OSM      H15A     HL       0.250000       1.00800           0
     21789 MEMB     189      OSM      H15B     HL       0.250000       1.00800           0
     21790 MEMB     189      OSM      H15C     HL       0.250000       1.00800           0
     21791 MEMB     189      OSM      C14      CTL5    -0.350000       12.0110           0
     21792 MEMB     189      OSM      H14A     HL       0.250000       1.00800           0
     21793 MEMB     189      OSM      H14B     HL       0.250000       1.00800           0
     21794 MEMB     189      OSM      H14C     HL       0.250000       1.00800           0
     21795 MEMB     189      OSM      C13      CTL5    -0.350000       12.0110           0
     21796 MEMB     189      OSM      H13A     HL       0.250000       1.00800           0
     21797 MEMB     189      OSM      H13B     HL       0.250000       1.00800           0
     21798 MEMB     189      OSM      H13C     HL       0.250000       1.00800           0
     21799 MEMB     189      OSM      C12      CTL2    -0.100000       12.0110           0
     21800 MEMB     189      OSM      H12A     HL       0.250000       1.00800           0
     21801 MEMB     189      OSM      H12B     HL       0.250000       1.00800           0
     21802 MEMB     189      OSM      C11      CTL2    -0.800000E-01   12.0110           0
     21803 MEMB     189      OSM      H11A     HAL2     0.900000E-01   1.00800           0
     21804 MEMB     189      OSM      H11B     HAL2     0.900000E-01   1.00800           0
     21805 MEMB     189      OSM      P        PL        1.50000       30.9740           0
     21806 MEMB     189      OSM      O13      O2L     -0.780000       15.9994           0
     21807 MEMB     189      OSM      O14      O2L     -0.780000       15.9994           0
     21808 MEMB     189      OSM      O11      OSLP    -0.570000       15.9994           0
     21809 MEMB     189      OSM      O12      OSLP    -0.570000       15.9994           0
     21810 MEMB     189      OSM      C1S      CTL2    -0.800000E-01   12.0110           0
     21811 MEMB     189      OSM      H1S      HAL2     0.900000E-01   1.00800           0
     21812 MEMB     189      OSM      H1T      HAL2     0.900000E-01   1.00800           0
     21813 MEMB     189      OSM      NF       NHL     -0.700000       14.0070           0
     21814 MEMB     189      OSM      HNF      H        0.350000       1.00800           0
     21815 MEMB     189      OSM      C2S      CTL1     0.300000       12.0110           0
     21816 MEMB     189      OSM      H2S      HAL1     0.500000E-01   1.00800           0
     21817 MEMB     189      OSM      C3S      CTO1     0.500000       12.0110           0
     21818 MEMB     189      OSM      H3S      HAL1    -0.110000       1.00800           0
     21819 MEMB     189      OSM      O3       OHL     -0.690000       15.9994           0
     21820 MEMB     189      OSM      HO3      HOL      0.300000       1.00800           0
     21821 MEMB     189      OSM      C4S      CEL3    -0.150000       12.0110           0
     21822 MEMB     189      OSM      H4S      HEL1     0.150000       1.00800           0
     21823 MEMB     189      OSM      C5S      CEL3    -0.150000       12.0110           0
     21824 MEMB     189      OSM      H5S      HEL1     0.150000       1.00800           0
     21825 MEMB     189      OSM      C6S      CTL2    -0.180000       12.0110           0
     21826 MEMB     189      OSM      H6S      HAL2     0.900000E-01   1.00800           0
     21827 MEMB     189      OSM      H6T      HAL2     0.900000E-01   1.00800           0
     21828 MEMB     189      OSM      C7S      CTL2    -0.180000       12.0110           0
     21829 MEMB     189      OSM      H7S      HAL2     0.900000E-01   1.00800           0
     21830 MEMB     189      OSM      H7T      HAL2     0.900000E-01   1.00800           0
     21831 MEMB     189      OSM      C8S      CTL2    -0.180000       12.0110           0
     21832 MEMB     189      OSM      H8S      HAL2     0.900000E-01   1.00800           0
     21833 MEMB     189      OSM      H8T      HAL2     0.900000E-01   1.00800           0
     21834 MEMB     189      OSM      C9S      CTL2    -0.180000       12.0110           0
     21835 MEMB     189      OSM      H9S      HAL2     0.900000E-01   1.00800           0
     21836 MEMB     189      OSM      H9T      HAL2     0.900000E-01   1.00800           0
     21837 MEMB     189      OSM      C10S     CTL2    -0.180000       12.0110           0
     21838 MEMB     189      OSM      H10S     HAL2     0.900000E-01   1.00800           0
     21839 MEMB     189      OSM      H10T     HAL2     0.900000E-01   1.00800           0
     21840 MEMB     189      OSM      C11S     CTL2    -0.180000       12.0110           0
     21841 MEMB     189      OSM      H11S     HAL2     0.900000E-01   1.00800           0
     21842 MEMB     189      OSM      H11T     HAL2     0.900000E-01   1.00800           0
     21843 MEMB     189      OSM      C12S     CTL2    -0.180000       12.0110           0
     21844 MEMB     189      OSM      H12S     HAL2     0.900000E-01   1.00800           0
     21845 MEMB     189      OSM      H12T     HAL2     0.900000E-01   1.00800           0
     21846 MEMB     189      OSM      C13S     CTL2    -0.180000       12.0110           0
     21847 MEMB     189      OSM      H13S     HAL2     0.900000E-01   1.00800           0
     21848 MEMB     189      OSM      H13T     HAL2     0.900000E-01   1.00800           0
     21849 MEMB     189      OSM      C14S     CTL2    -0.180000       12.0110           0
     21850 MEMB     189      OSM      H14S     HAL2     0.900000E-01   1.00800           0
     21851 MEMB     189      OSM      H14T     HAL2     0.900000E-01   1.00800           0
     21852 MEMB     189      OSM      C15S     CTL2    -0.180000       12.0110           0
     21853 MEMB     189      OSM      H15S     HAL2     0.900000E-01   1.00800           0
     21854 MEMB     189      OSM      H15T     HAL2     0.900000E-01   1.00800           0
     21855 MEMB     189      OSM      C16S     CTL2    -0.180000       12.0110           0
     21856 MEMB     189      OSM      H16S     HAL2     0.900000E-01   1.00800           0
     21857 MEMB     189      OSM      H16T     HAL2     0.900000E-01   1.00800           0
     21858 MEMB     189      OSM      C17S     CTL2    -0.180000       12.0110           0
     21859 MEMB     189      OSM      H17S     HAL2     0.900000E-01   1.00800           0
     21860 MEMB     189      OSM      H17T     HAL2     0.900000E-01   1.00800           0
     21861 MEMB     189      OSM      C18S     CTL3    -0.270000       12.0110           0
     21862 MEMB     189      OSM      H18S     HAL3     0.900000E-01   1.00800           0
     21863 MEMB     189      OSM      H18T     HAL3     0.900000E-01   1.00800           0
     21864 MEMB     189      OSM      H18U     HAL3     0.900000E-01   1.00800           0
     21865 MEMB     189      OSM      C1F      C        0.550000       12.0110           0
     21866 MEMB     189      OSM      OF       O       -0.600000       15.9994           0
     21867 MEMB     189      OSM      C2F      CTL2    -0.700000E-01   12.0110           0
     21868 MEMB     189      OSM      H2F      HAL2     0.600000E-01   1.00800           0
     21869 MEMB     189      OSM      H2G      HAL2     0.600000E-01   1.00800           0
     21870 MEMB     189      OSM      C3F      CTL2    -0.180000       12.0110           0
     21871 MEMB     189      OSM      H3F      HAL2     0.900000E-01   1.00800           0
     21872 MEMB     189      OSM      H3G      HAL2     0.900000E-01   1.00800           0
     21873 MEMB     189      OSM      C4F      CTL2    -0.180000       12.0110           0
     21874 MEMB     189      OSM      H4F      HAL2     0.900000E-01   1.00800           0
     21875 MEMB     189      OSM      H4G      HAL2     0.900000E-01   1.00800           0
     21876 MEMB     189      OSM      C5F      CTL2    -0.180000       12.0110           0
     21877 MEMB     189      OSM      H5F      HAL2     0.900000E-01   1.00800           0
     21878 MEMB     189      OSM      H5G      HAL2     0.900000E-01   1.00800           0
     21879 MEMB     189      OSM      C6F      CTL2    -0.180000       12.0110           0
     21880 MEMB     189      OSM      H6F      HAL2     0.900000E-01   1.00800           0
     21881 MEMB     189      OSM      H6G      HAL2     0.900000E-01   1.00800           0
     21882 MEMB     189      OSM      C7F      CTL2    -0.180000       12.0110           0
     21883 MEMB     189      OSM      H7F      HAL2     0.900000E-01   1.00800           0
     21884 MEMB     189      OSM      H7G      HAL2     0.900000E-01   1.00800           0
     21885 MEMB     189      OSM      C8F      CTL2    -0.180000       12.0110           0
     21886 MEMB     189      OSM      H8F      HAL2     0.900000E-01   1.00800           0
     21887 MEMB     189      OSM      H8G      HAL2     0.900000E-01   1.00800           0
     21888 MEMB     189      OSM      C9F      CEL1    -0.150000       12.0110           0
     21889 MEMB     189      OSM      H9F      HEL1     0.150000       1.00800           0
     21890 MEMB     189      OSM      C10F     CEL1    -0.150000       12.0110           0
     21891 MEMB     189      OSM      H10F     HEL1     0.150000       1.00800           0
     21892 MEMB     189      OSM      C11F     CTL2    -0.180000       12.0110           0
     21893 MEMB     189      OSM      H11F     HAL2     0.900000E-01   1.00800           0
     21894 MEMB     189      OSM      H11G     HAL2     0.900000E-01   1.00800           0
     21895 MEMB     189      OSM      C12F     CTL2    -0.180000       12.0110           0
     21896 MEMB     189      OSM      H12F     HAL2     0.900000E-01   1.00800           0
     21897 MEMB     189      OSM      H12G     HAL2     0.900000E-01   1.00800           0
     21898 MEMB     189      OSM      C13F     CTL2    -0.180000       12.0110           0
     21899 MEMB     189      OSM      H13F     HAL2     0.900000E-01   1.00800           0
     21900 MEMB     189      OSM      H13G     HAL2     0.900000E-01   1.00800           0
     21901 MEMB     189      OSM      C14F     CTL2    -0.180000       12.0110           0
     21902 MEMB     189      OSM      H14F     HAL2     0.900000E-01   1.00800           0
     21903 MEMB     189      OSM      H14G     HAL2     0.900000E-01   1.00800           0
     21904 MEMB     189      OSM      C15F     CTL2    -0.180000       12.0110           0
     21905 MEMB     189      OSM      H15F     HAL2     0.900000E-01   1.00800           0
     21906 MEMB     189      OSM      H15G     HAL2     0.900000E-01   1.00800           0
     21907 MEMB     189      OSM      C16F     CTL2    -0.180000       12.0110           0
     21908 MEMB     189      OSM      H16F     HAL2     0.900000E-01   1.00800           0
     21909 MEMB     189      OSM      H16G     HAL2     0.900000E-01   1.00800           0
     21910 MEMB     189      OSM      C17F     CTL2    -0.180000       12.0110           0
     21911 MEMB     189      OSM      H17F     HAL2     0.900000E-01   1.00800           0
     21912 MEMB     189      OSM      H17G     HAL2     0.900000E-01   1.00800           0
     21913 MEMB     189      OSM      C18F     CTL3    -0.270000       12.0110           0
     21914 MEMB     189      OSM      H18F     HAL3     0.900000E-01   1.00800           0
     21915 MEMB     189      OSM      H18G     HAL3     0.900000E-01   1.00800           0
     21916 MEMB     189      OSM      H18H     HAL3     0.900000E-01   1.00800           0
     21917 MEMB     190      SAPE     N        NH3L    -0.300000       14.0070           0
     21918 MEMB     190      SAPE     HN1      HCL      0.330000       1.00800           0
     21919 MEMB     190      SAPE     HN2      HCL      0.330000       1.00800           0
     21920 MEMB     190      SAPE     HN3      HCL      0.330000       1.00800           0
     21921 MEMB     190      SAPE     C12      CTL2     0.130000       12.0110           0
     21922 MEMB     190      SAPE     H12A     HAL2     0.900000E-01   1.00800           0
     21923 MEMB     190      SAPE     H12B     HAL2     0.900000E-01   1.00800           0
     21924 MEMB     190      SAPE     C11      CTL2    -0.800000E-01   12.0110           0
     21925 MEMB     190      SAPE     H11A     HAL2     0.900000E-01   1.00800           0
     21926 MEMB     190      SAPE     H11B     HAL2     0.900000E-01   1.00800           0
     21927 MEMB     190      SAPE     P        PL        1.50000       30.9740           0
     21928 MEMB     190      SAPE     O13      O2L     -0.780000       15.9994           0
     21929 MEMB     190      SAPE     O14      O2L     -0.780000       15.9994           0
     21930 MEMB     190      SAPE     O12      OSLP    -0.570000       15.9994           0
     21931 MEMB     190      SAPE     O11      OSLP    -0.570000       15.9994           0
     21932 MEMB     190      SAPE     C1       CTL2    -0.800000E-01   12.0110           0
     21933 MEMB     190      SAPE     HA       HAL2     0.900000E-01   1.00800           0
     21934 MEMB     190      SAPE     HB       HAL2     0.900000E-01   1.00800           0
     21935 MEMB     190      SAPE     C2       CTL1     0.170000       12.0110           0
     21936 MEMB     190      SAPE     HS       HAL1     0.900000E-01   1.00800           0
     21937 MEMB     190      SAPE     O21      OSL     -0.490000       15.9994           0
     21938 MEMB     190      SAPE     C21      CL       0.900000       12.0110           0
     21939 MEMB     190      SAPE     O22      OBL     -0.630000       15.9994           0
     21940 MEMB     190      SAPE     C22      CTL2    -0.220000       12.0110           0
     21941 MEMB     190      SAPE     H2R      HAL2     0.900000E-01   1.00800           0
     21942 MEMB     190      SAPE     H2S      HAL2     0.900000E-01   1.00800           0
     21943 MEMB     190      SAPE     C3       CTL2     0.800000E-01   12.0110           0
     21944 MEMB     190      SAPE     HX       HAL2     0.900000E-01   1.00800           0
     21945 MEMB     190      SAPE     HY       HAL2     0.900000E-01   1.00800           0
     21946 MEMB     190      SAPE     O31      OSL     -0.490000       15.9994           0
     21947 MEMB     190      SAPE     C31      CL       0.900000       12.0110           0
     21948 MEMB     190      SAPE     O32      OBL     -0.630000       15.9994           0
     21949 MEMB     190      SAPE     C32      CTL2    -0.220000       12.0110           0
     21950 MEMB     190      SAPE     H2X      HAL2     0.900000E-01   1.00800           0
     21951 MEMB     190      SAPE     H2Y      HAL2     0.900000E-01   1.00800           0
     21952 MEMB     190      SAPE     C23      CTL2    -0.180000       12.0110           0
     21953 MEMB     190      SAPE     H3R      HAL2     0.900000E-01   1.00800           0
     21954 MEMB     190      SAPE     H3S      HAL2     0.900000E-01   1.00800           0
     21955 MEMB     190      SAPE     C24      CTL2    -0.180000       12.0110           0
     21956 MEMB     190      SAPE     H4R      HAL2     0.900000E-01   1.00800           0
     21957 MEMB     190      SAPE     H4S      HAL2     0.900000E-01   1.00800           0
     21958 MEMB     190      SAPE     C25      CEL1    -0.150000       12.0110           0
     21959 MEMB     190      SAPE     H5R      HEL1     0.150000       1.00800           0
     21960 MEMB     190      SAPE     C26      CEL1    -0.150000       12.0110           0
     21961 MEMB     190      SAPE     H6R      HEL1     0.150000       1.00800           0
     21962 MEMB     190      SAPE     C27      CTL2    -0.180000       12.0110           0
     21963 MEMB     190      SAPE     H7R      HAL2     0.900000E-01   1.00800           0
     21964 MEMB     190      SAPE     H7S      HAL2     0.900000E-01   1.00800           0
     21965 MEMB     190      SAPE     C28      CEL1    -0.150000       12.0110           0
     21966 MEMB     190      SAPE     H8R      HEL1     0.150000       1.00800           0
     21967 MEMB     190      SAPE     C29      CEL1    -0.150000       12.0110           0
     21968 MEMB     190      SAPE     H9R      HEL1     0.150000       1.00800           0
     21969 MEMB     190      SAPE     C210     CTL2    -0.180000       12.0110           0
     21970 MEMB     190      SAPE     H10R     HAL2     0.900000E-01   1.00800           0
     21971 MEMB     190      SAPE     H10S     HAL2     0.900000E-01   1.00800           0
     21972 MEMB     190      SAPE     C211     CEL1    -0.150000       12.0110           0
     21973 MEMB     190      SAPE     H11R     HEL1     0.150000       1.00800           0
     21974 MEMB     190      SAPE     C212     CEL1    -0.150000       12.0110           0
     21975 MEMB     190      SAPE     H12R     HEL1     0.150000       1.00800           0
     21976 MEMB     190      SAPE     C213     CTL2    -0.180000       12.0110           0
     21977 MEMB     190      SAPE     H13R     HAL2     0.900000E-01   1.00800           0
     21978 MEMB     190      SAPE     H13S     HAL2     0.900000E-01   1.00800           0
     21979 MEMB     190      SAPE     C214     CEL1    -0.150000       12.0110           0
     21980 MEMB     190      SAPE     H14R     HEL1     0.150000       1.00800           0
     21981 MEMB     190      SAPE     C215     CEL1    -0.150000       12.0110           0
     21982 MEMB     190      SAPE     H15R     HEL1     0.150000       1.00800           0
     21983 MEMB     190      SAPE     C216     CTL2    -0.180000       12.0110           0
     21984 MEMB     190      SAPE     H16R     HAL2     0.900000E-01   1.00800           0
     21985 MEMB     190      SAPE     H16S     HAL2     0.900000E-01   1.00800           0
     21986 MEMB     190      SAPE     C217     CTL2    -0.180000       12.0110           0
     21987 MEMB     190      SAPE     H17R     HAL2     0.900000E-01   1.00800           0
     21988 MEMB     190      SAPE     H17S     HAL2     0.900000E-01   1.00800           0
     21989 MEMB     190      SAPE     C218     CTL2    -0.180000       12.0110           0
     21990 MEMB     190      SAPE     H18R     HAL2     0.900000E-01   1.00800           0
     21991 MEMB     190      SAPE     H18S     HAL2     0.900000E-01   1.00800           0
     21992 MEMB     190      SAPE     C219     CTL2    -0.180000       12.0110           0
     21993 MEMB     190      SAPE     H19R     HAL2     0.900000E-01   1.00800           0
     21994 MEMB     190      SAPE     H19S     HAL2     0.900000E-01   1.00800           0
     21995 MEMB     190      SAPE     C220     CTL3    -0.270000       12.0110           0
     21996 MEMB     190      SAPE     H20R     HAL3     0.900000E-01   1.00800           0
     21997 MEMB     190      SAPE     H20S     HAL3     0.900000E-01   1.00800           0
     21998 MEMB     190      SAPE     H20T     HAL3     0.900000E-01   1.00800           0
     21999 MEMB     190      SAPE     C33      CTL2    -0.180000       12.0110           0
     22000 MEMB     190      SAPE     H3X      HAL2     0.900000E-01   1.00800           0
     22001 MEMB     190      SAPE     H3Y      HAL2     0.900000E-01   1.00800           0
     22002 MEMB     190      SAPE     C34      CTL2    -0.180000       12.0110           0
     22003 MEMB     190      SAPE     H4X      HAL2     0.900000E-01   1.00800           0
     22004 MEMB     190      SAPE     H4Y      HAL2     0.900000E-01   1.00800           0
     22005 MEMB     190      SAPE     C35      CTL2    -0.180000       12.0110           0
     22006 MEMB     190      SAPE     H5X      HAL2     0.900000E-01   1.00800           0
     22007 MEMB     190      SAPE     H5Y      HAL2     0.900000E-01   1.00800           0
     22008 MEMB     190      SAPE     C36      CTL2    -0.180000       12.0110           0
     22009 MEMB     190      SAPE     H6X      HAL2     0.900000E-01   1.00800           0
     22010 MEMB     190      SAPE     H6Y      HAL2     0.900000E-01   1.00800           0
     22011 MEMB     190      SAPE     C37      CTL2    -0.180000       12.0110           0
     22012 MEMB     190      SAPE     H7X      HAL2     0.900000E-01   1.00800           0
     22013 MEMB     190      SAPE     H7Y      HAL2     0.900000E-01   1.00800           0
     22014 MEMB     190      SAPE     C38      CTL2    -0.180000       12.0110           0
     22015 MEMB     190      SAPE     H8X      HAL2     0.900000E-01   1.00800           0
     22016 MEMB     190      SAPE     H8Y      HAL2     0.900000E-01   1.00800           0
     22017 MEMB     190      SAPE     C39      CTL2    -0.180000       12.0110           0
     22018 MEMB     190      SAPE     H9X      HAL2     0.900000E-01   1.00800           0
     22019 MEMB     190      SAPE     H9Y      HAL2     0.900000E-01   1.00800           0
     22020 MEMB     190      SAPE     C310     CTL2    -0.180000       12.0110           0
     22021 MEMB     190      SAPE     H10X     HAL2     0.900000E-01   1.00800           0
     22022 MEMB     190      SAPE     H10Y     HAL2     0.900000E-01   1.00800           0
     22023 MEMB     190      SAPE     C311     CTL2    -0.180000       12.0110           0
     22024 MEMB     190      SAPE     H11X     HAL2     0.900000E-01   1.00800           0
     22025 MEMB     190      SAPE     H11Y     HAL2     0.900000E-01   1.00800           0
     22026 MEMB     190      SAPE     C312     CTL2    -0.180000       12.0110           0
     22027 MEMB     190      SAPE     H12X     HAL2     0.900000E-01   1.00800           0
     22028 MEMB     190      SAPE     H12Y     HAL2     0.900000E-01   1.00800           0
     22029 MEMB     190      SAPE     C313     CTL2    -0.180000       12.0110           0
     22030 MEMB     190      SAPE     H13X     HAL2     0.900000E-01   1.00800           0
     22031 MEMB     190      SAPE     H13Y     HAL2     0.900000E-01   1.00800           0
     22032 MEMB     190      SAPE     C314     CTL2    -0.180000       12.0110           0
     22033 MEMB     190      SAPE     H14X     HAL2     0.900000E-01   1.00800           0
     22034 MEMB     190      SAPE     H14Y     HAL2     0.900000E-01   1.00800           0
     22035 MEMB     190      SAPE     C315     CTL2    -0.180000       12.0110           0
     22036 MEMB     190      SAPE     H15X     HAL2     0.900000E-01   1.00800           0
     22037 MEMB     190      SAPE     H15Y     HAL2     0.900000E-01   1.00800           0
     22038 MEMB     190      SAPE     C316     CTL2    -0.180000       12.0110           0
     22039 MEMB     190      SAPE     H16X     HAL2     0.900000E-01   1.00800           0
     22040 MEMB     190      SAPE     H16Y     HAL2     0.900000E-01   1.00800           0
     22041 MEMB     190      SAPE     C317     CTL2    -0.180000       12.0110           0
     22042 MEMB     190      SAPE     H17X     HAL2     0.900000E-01   1.00800           0
     22043 MEMB     190      SAPE     H17Y     HAL2     0.900000E-01   1.00800           0
     22044 MEMB     190      SAPE     C318     CTL3    -0.270000       12.0110           0
     22045 MEMB     190      SAPE     H18X     HAL3     0.900000E-01   1.00800           0
     22046 MEMB     190      SAPE     H18Y     HAL3     0.900000E-01   1.00800           0
     22047 MEMB     190      SAPE     H18Z     HAL3     0.900000E-01   1.00800           0
     22048 MEMB     191      SAPE     N        NH3L    -0.300000       14.0070           0
     22049 MEMB     191      SAPE     HN1      HCL      0.330000       1.00800           0
     22050 MEMB     191      SAPE     HN2      HCL      0.330000       1.00800           0
     22051 MEMB     191      SAPE     HN3      HCL      0.330000       1.00800           0
     22052 MEMB     191      SAPE     C12      CTL2     0.130000       12.0110           0
     22053 MEMB     191      SAPE     H12A     HAL2     0.900000E-01   1.00800           0
     22054 MEMB     191      SAPE     H12B     HAL2     0.900000E-01   1.00800           0
     22055 MEMB     191      SAPE     C11      CTL2    -0.800000E-01   12.0110           0
     22056 MEMB     191      SAPE     H11A     HAL2     0.900000E-01   1.00800           0
     22057 MEMB     191      SAPE     H11B     HAL2     0.900000E-01   1.00800           0
     22058 MEMB     191      SAPE     P        PL        1.50000       30.9740           0
     22059 MEMB     191      SAPE     O13      O2L     -0.780000       15.9994           0
     22060 MEMB     191      SAPE     O14      O2L     -0.780000       15.9994           0
     22061 MEMB     191      SAPE     O12      OSLP    -0.570000       15.9994           0
     22062 MEMB     191      SAPE     O11      OSLP    -0.570000       15.9994           0
     22063 MEMB     191      SAPE     C1       CTL2    -0.800000E-01   12.0110           0
     22064 MEMB     191      SAPE     HA       HAL2     0.900000E-01   1.00800           0
     22065 MEMB     191      SAPE     HB       HAL2     0.900000E-01   1.00800           0
     22066 MEMB     191      SAPE     C2       CTL1     0.170000       12.0110           0
     22067 MEMB     191      SAPE     HS       HAL1     0.900000E-01   1.00800           0
     22068 MEMB     191      SAPE     O21      OSL     -0.490000       15.9994           0
     22069 MEMB     191      SAPE     C21      CL       0.900000       12.0110           0
     22070 MEMB     191      SAPE     O22      OBL     -0.630000       15.9994           0
     22071 MEMB     191      SAPE     C22      CTL2    -0.220000       12.0110           0
     22072 MEMB     191      SAPE     H2R      HAL2     0.900000E-01   1.00800           0
     22073 MEMB     191      SAPE     H2S      HAL2     0.900000E-01   1.00800           0
     22074 MEMB     191      SAPE     C3       CTL2     0.800000E-01   12.0110           0
     22075 MEMB     191      SAPE     HX       HAL2     0.900000E-01   1.00800           0
     22076 MEMB     191      SAPE     HY       HAL2     0.900000E-01   1.00800           0
     22077 MEMB     191      SAPE     O31      OSL     -0.490000       15.9994           0
     22078 MEMB     191      SAPE     C31      CL       0.900000       12.0110           0
     22079 MEMB     191      SAPE     O32      OBL     -0.630000       15.9994           0
     22080 MEMB     191      SAPE     C32      CTL2    -0.220000       12.0110           0
     22081 MEMB     191      SAPE     H2X      HAL2     0.900000E-01   1.00800           0
     22082 MEMB     191      SAPE     H2Y      HAL2     0.900000E-01   1.00800           0
     22083 MEMB     191      SAPE     C23      CTL2    -0.180000       12.0110           0
     22084 MEMB     191      SAPE     H3R      HAL2     0.900000E-01   1.00800           0
     22085 MEMB     191      SAPE     H3S      HAL2     0.900000E-01   1.00800           0
     22086 MEMB     191      SAPE     C24      CTL2    -0.180000       12.0110           0
     22087 MEMB     191      SAPE     H4R      HAL2     0.900000E-01   1.00800           0
     22088 MEMB     191      SAPE     H4S      HAL2     0.900000E-01   1.00800           0
     22089 MEMB     191      SAPE     C25      CEL1    -0.150000       12.0110           0
     22090 MEMB     191      SAPE     H5R      HEL1     0.150000       1.00800           0
     22091 MEMB     191      SAPE     C26      CEL1    -0.150000       12.0110           0
     22092 MEMB     191      SAPE     H6R      HEL1     0.150000       1.00800           0
     22093 MEMB     191      SAPE     C27      CTL2    -0.180000       12.0110           0
     22094 MEMB     191      SAPE     H7R      HAL2     0.900000E-01   1.00800           0
     22095 MEMB     191      SAPE     H7S      HAL2     0.900000E-01   1.00800           0
     22096 MEMB     191      SAPE     C28      CEL1    -0.150000       12.0110           0
     22097 MEMB     191      SAPE     H8R      HEL1     0.150000       1.00800           0
     22098 MEMB     191      SAPE     C29      CEL1    -0.150000       12.0110           0
     22099 MEMB     191      SAPE     H9R      HEL1     0.150000       1.00800           0
     22100 MEMB     191      SAPE     C210     CTL2    -0.180000       12.0110           0
     22101 MEMB     191      SAPE     H10R     HAL2     0.900000E-01   1.00800           0
     22102 MEMB     191      SAPE     H10S     HAL2     0.900000E-01   1.00800           0
     22103 MEMB     191      SAPE     C211     CEL1    -0.150000       12.0110           0
     22104 MEMB     191      SAPE     H11R     HEL1     0.150000       1.00800           0
     22105 MEMB     191      SAPE     C212     CEL1    -0.150000       12.0110           0
     22106 MEMB     191      SAPE     H12R     HEL1     0.150000       1.00800           0
     22107 MEMB     191      SAPE     C213     CTL2    -0.180000       12.0110           0
     22108 MEMB     191      SAPE     H13R     HAL2     0.900000E-01   1.00800           0
     22109 MEMB     191      SAPE     H13S     HAL2     0.900000E-01   1.00800           0
     22110 MEMB     191      SAPE     C214     CEL1    -0.150000       12.0110           0
     22111 MEMB     191      SAPE     H14R     HEL1     0.150000       1.00800           0
     22112 MEMB     191      SAPE     C215     CEL1    -0.150000       12.0110           0
     22113 MEMB     191      SAPE     H15R     HEL1     0.150000       1.00800           0
     22114 MEMB     191      SAPE     C216     CTL2    -0.180000       12.0110           0
     22115 MEMB     191      SAPE     H16R     HAL2     0.900000E-01   1.00800           0
     22116 MEMB     191      SAPE     H16S     HAL2     0.900000E-01   1.00800           0
     22117 MEMB     191      SAPE     C217     CTL2    -0.180000       12.0110           0
     22118 MEMB     191      SAPE     H17R     HAL2     0.900000E-01   1.00800           0
     22119 MEMB     191      SAPE     H17S     HAL2     0.900000E-01   1.00800           0
     22120 MEMB     191      SAPE     C218     CTL2    -0.180000       12.0110           0
     22121 MEMB     191      SAPE     H18R     HAL2     0.900000E-01   1.00800           0
     22122 MEMB     191      SAPE     H18S     HAL2     0.900000E-01   1.00800           0
     22123 MEMB     191      SAPE     C219     CTL2    -0.180000       12.0110           0
     22124 MEMB     191      SAPE     H19R     HAL2     0.900000E-01   1.00800           0
     22125 MEMB     191      SAPE     H19S     HAL2     0.900000E-01   1.00800           0
     22126 MEMB     191      SAPE     C220     CTL3    -0.270000       12.0110           0
     22127 MEMB     191      SAPE     H20R     HAL3     0.900000E-01   1.00800           0
     22128 MEMB     191      SAPE     H20S     HAL3     0.900000E-01   1.00800           0
     22129 MEMB     191      SAPE     H20T     HAL3     0.900000E-01   1.00800           0
     22130 MEMB     191      SAPE     C33      CTL2    -0.180000       12.0110           0
     22131 MEMB     191      SAPE     H3X      HAL2     0.900000E-01   1.00800           0
     22132 MEMB     191      SAPE     H3Y      HAL2     0.900000E-01   1.00800           0
     22133 MEMB     191      SAPE     C34      CTL2    -0.180000       12.0110           0
     22134 MEMB     191      SAPE     H4X      HAL2     0.900000E-01   1.00800           0
     22135 MEMB     191      SAPE     H4Y      HAL2     0.900000E-01   1.00800           0
     22136 MEMB     191      SAPE     C35      CTL2    -0.180000       12.0110           0
     22137 MEMB     191      SAPE     H5X      HAL2     0.900000E-01   1.00800           0
     22138 MEMB     191      SAPE     H5Y      HAL2     0.900000E-01   1.00800           0
     22139 MEMB     191      SAPE     C36      CTL2    -0.180000       12.0110           0
     22140 MEMB     191      SAPE     H6X      HAL2     0.900000E-01   1.00800           0
     22141 MEMB     191      SAPE     H6Y      HAL2     0.900000E-01   1.00800           0
     22142 MEMB     191      SAPE     C37      CTL2    -0.180000       12.0110           0
     22143 MEMB     191      SAPE     H7X      HAL2     0.900000E-01   1.00800           0
     22144 MEMB     191      SAPE     H7Y      HAL2     0.900000E-01   1.00800           0
     22145 MEMB     191      SAPE     C38      CTL2    -0.180000       12.0110           0
     22146 MEMB     191      SAPE     H8X      HAL2     0.900000E-01   1.00800           0
     22147 MEMB     191      SAPE     H8Y      HAL2     0.900000E-01   1.00800           0
     22148 MEMB     191      SAPE     C39      CTL2    -0.180000       12.0110           0
     22149 MEMB     191      SAPE     H9X      HAL2     0.900000E-01   1.00800           0
     22150 MEMB     191      SAPE     H9Y      HAL2     0.900000E-01   1.00800           0
     22151 MEMB     191      SAPE     C310     CTL2    -0.180000       12.0110           0
     22152 MEMB     191      SAPE     H10X     HAL2     0.900000E-01   1.00800           0
     22153 MEMB     191      SAPE     H10Y     HAL2     0.900000E-01   1.00800           0
     22154 MEMB     191      SAPE     C311     CTL2    -0.180000       12.0110           0
     22155 MEMB     191      SAPE     H11X     HAL2     0.900000E-01   1.00800           0
     22156 MEMB     191      SAPE     H11Y     HAL2     0.900000E-01   1.00800           0
     22157 MEMB     191      SAPE     C312     CTL2    -0.180000       12.0110           0
     22158 MEMB     191      SAPE     H12X     HAL2     0.900000E-01   1.00800           0
     22159 MEMB     191      SAPE     H12Y     HAL2     0.900000E-01   1.00800           0
     22160 MEMB     191      SAPE     C313     CTL2    -0.180000       12.0110           0
     22161 MEMB     191      SAPE     H13X     HAL2     0.900000E-01   1.00800           0
     22162 MEMB     191      SAPE     H13Y     HAL2     0.900000E-01   1.00800           0
     22163 MEMB     191      SAPE     C314     CTL2    -0.180000       12.0110           0
     22164 MEMB     191      SAPE     H14X     HAL2     0.900000E-01   1.00800           0
     22165 MEMB     191      SAPE     H14Y     HAL2     0.900000E-01   1.00800           0
     22166 MEMB     191      SAPE     C315     CTL2    -0.180000       12.0110           0
     22167 MEMB     191      SAPE     H15X     HAL2     0.900000E-01   1.00800           0
     22168 MEMB     191      SAPE     H15Y     HAL2     0.900000E-01   1.00800           0
     22169 MEMB     191      SAPE     C316     CTL2    -0.180000       12.0110           0
     22170 MEMB     191      SAPE     H16X     HAL2     0.900000E-01   1.00800           0
     22171 MEMB     191      SAPE     H16Y     HAL2     0.900000E-01   1.00800           0
     22172 MEMB     191      SAPE     C317     CTL2    -0.180000       12.0110           0
     22173 MEMB     191      SAPE     H17X     HAL2     0.900000E-01   1.00800           0
     22174 MEMB     191      SAPE     H17Y     HAL2     0.900000E-01   1.00800           0
     22175 MEMB     191      SAPE     C318     CTL3    -0.270000       12.0110           0
     22176 MEMB     191      SAPE     H18X     HAL3     0.900000E-01   1.00800           0
     22177 MEMB     191      SAPE     H18Y     HAL3     0.900000E-01   1.00800           0
     22178 MEMB     191      SAPE     H18Z     HAL3     0.900000E-01   1.00800           0
     22179 MEMB     192      CHL1     C3       CRL1     0.140000       12.0110           0
     22180 MEMB     192      CHL1     H3       HGA1     0.900000E-01   1.00800           0
     22181 MEMB     192      CHL1     O3       OHL     -0.660000       15.9994           0
     22182 MEMB     192      CHL1     H3'      HOL      0.430000       1.00800           0
     22183 MEMB     192      CHL1     C4       CRL2    -0.180000       12.0110           0
     22184 MEMB     192      CHL1     H4A      HGA2     0.900000E-01   1.00800           0
     22185 MEMB     192      CHL1     H4B      HGA2     0.900000E-01   1.00800           0
     22186 MEMB     192      CHL1     C5       CEL1      0.00000       12.0110           0
     22187 MEMB     192      CHL1     C6       CEL1    -0.150000       12.0110           0
     22188 MEMB     192      CHL1     H6       HEL1     0.150000       1.00800           0
     22189 MEMB     192      CHL1     C7       CRL2    -0.180000       12.0110           0
     22190 MEMB     192      CHL1     H7A      HGA2     0.900000E-01   1.00800           0
     22191 MEMB     192      CHL1     H7B      HGA2     0.900000E-01   1.00800           0
     22192 MEMB     192      CHL1     C8       CRL1    -0.900000E-01   12.0110           0
     22193 MEMB     192      CHL1     H8       HGA1     0.900000E-01   1.00800           0
     22194 MEMB     192      CHL1     C14      CRL1    -0.900000E-01   12.0110           0
     22195 MEMB     192      CHL1     H14      HGA1     0.900000E-01   1.00800           0
     22196 MEMB     192      CHL1     C15      CRL2    -0.180000       12.0110           0
     22197 MEMB     192      CHL1     H15A     HGA2     0.900000E-01   1.00800           0
     22198 MEMB     192      CHL1     H15B     HGA2     0.900000E-01   1.00800           0
     22199 MEMB     192      CHL1     C16      CRL2    -0.180000       12.0110           0
     22200 MEMB     192      CHL1     H16A     HGA2     0.900000E-01   1.00800           0
     22201 MEMB     192      CHL1     H16B     HGA2     0.900000E-01   1.00800           0
     22202 MEMB     192      CHL1     C17      CRL1    -0.900000E-01   12.0110           0
     22203 MEMB     192      CHL1     H17      HGA1     0.900000E-01   1.00800           0
     22204 MEMB     192      CHL1     C13      CRL1      0.00000       12.0110           0
     22205 MEMB     192      CHL1     C18      CTL3    -0.270000       12.0110           0
     22206 MEMB     192      CHL1     H18A     HAL3     0.900000E-01   1.00800           0
     22207 MEMB     192      CHL1     H18B     HAL3     0.900000E-01   1.00800           0
     22208 MEMB     192      CHL1     H18C     HAL3     0.900000E-01   1.00800           0
     22209 MEMB     192      CHL1     C12      CRL2    -0.180000       12.0110           0
     22210 MEMB     192      CHL1     H12A     HGA2     0.900000E-01   1.00800           0
     22211 MEMB     192      CHL1     H12B     HGA2     0.900000E-01   1.00800           0
     22212 MEMB     192      CHL1     C11      CRL2    -0.180000       12.0110           0
     22213 MEMB     192      CHL1     H11A     HGA2     0.900000E-01   1.00800           0
     22214 MEMB     192      CHL1     H11B     HGA2     0.900000E-01   1.00800           0
     22215 MEMB     192      CHL1     C9       CRL1    -0.900000E-01   12.0110           0
     22216 MEMB     192      CHL1     H9       HGA1     0.900000E-01   1.00800           0
     22217 MEMB     192      CHL1     C10      CRL1      0.00000       12.0110           0
     22218 MEMB     192      CHL1     C19      CTL3    -0.270000       12.0110           0
     22219 MEMB     192      CHL1     H19A     HAL3     0.900000E-01   1.00800           0
     22220 MEMB     192      CHL1     H19B     HAL3     0.900000E-01   1.00800           0
     22221 MEMB     192      CHL1     H19C     HAL3     0.900000E-01   1.00800           0
     22222 MEMB     192      CHL1     C1       CRL2    -0.180000       12.0110           0
     22223 MEMB     192      CHL1     H1A      HGA2     0.900000E-01   1.00800           0
     22224 MEMB     192      CHL1     H1B      HGA2     0.900000E-01   1.00800           0
     22225 MEMB     192      CHL1     C2       CRL2    -0.180000       12.0110           0
     22226 MEMB     192      CHL1     H2A      HGA2     0.900000E-01   1.00800           0
     22227 MEMB     192      CHL1     H2B      HGA2     0.900000E-01   1.00800           0
     22228 MEMB     192      CHL1     C20      CTL1    -0.900000E-01   12.0110           0
     22229 MEMB     192      CHL1     H20      HAL1     0.900000E-01   1.00800           0
     22230 MEMB     192      CHL1     C21      CTL3    -0.270000       12.0110           0
     22231 MEMB     192      CHL1     H21A     HAL3     0.900000E-01   1.00800           0
     22232 MEMB     192      CHL1     H21B     HAL3     0.900000E-01   1.00800           0
     22233 MEMB     192      CHL1     H21C     HAL3     0.900000E-01   1.00800           0
     22234 MEMB     192      CHL1     C22      CTL2    -0.180000       12.0110           0
     22235 MEMB     192      CHL1     H22A     HAL2     0.900000E-01   1.00800           0
     22236 MEMB     192      CHL1     H22B     HAL2     0.900000E-01   1.00800           0
     22237 MEMB     192      CHL1     C23      CTL2    -0.180000       12.0110           0
     22238 MEMB     192      CHL1     H23A     HAL2     0.900000E-01   1.00800           0
     22239 MEMB     192      CHL1     H23B     HAL2     0.900000E-01   1.00800           0
     22240 MEMB     192      CHL1     C24      CTL2    -0.180000       12.0110           0
     22241 MEMB     192      CHL1     H24A     HAL2     0.900000E-01   1.00800           0
     22242 MEMB     192      CHL1     H24B     HAL2     0.900000E-01   1.00800           0
     22243 MEMB     192      CHL1     C25      CTL1    -0.900000E-01   12.0110           0
     22244 MEMB     192      CHL1     H25      HAL1     0.900000E-01   1.00800           0
     22245 MEMB     192      CHL1     C26      CTL3    -0.270000       12.0110           0
     22246 MEMB     192      CHL1     H26A     HAL3     0.900000E-01   1.00800           0
     22247 MEMB     192      CHL1     H26B     HAL3     0.900000E-01   1.00800           0
     22248 MEMB     192      CHL1     H26C     HAL3     0.900000E-01   1.00800           0
     22249 MEMB     192      CHL1     C27      CTL3    -0.270000       12.0110           0
     22250 MEMB     192      CHL1     H27A     HAL3     0.900000E-01   1.00800           0
     22251 MEMB     192      CHL1     H27B     HAL3     0.900000E-01   1.00800           0
     22252 MEMB     192      CHL1     H27C     HAL3     0.900000E-01   1.00800           0

     22288 !NBOND: bonds
         1         3         1         2         3         4         1        47
        47        48        47        49        47        44        44        45
        44        46         1         5         5         6         5         7
         5         8         8        39        39        44        39        40
        40        41        40        42        40        43         8         9
         9        10         9        11        11        12        11        13
        11        14        14        15        14        37        37        38
        37        39        14        16        16        17        16        26
        26        31        31        32        31        33        31        34
        34        35        34        36        34        37        26        27
        27        28        27        29        27        30        16        18
        18        19        18        20        18        21        21        22
        21        23        21        24        24        25        24        26
        24        50        50        51        50        52        52        53
        52        54        52        55        50        56        56        57
        56        58        56        59        59        60        59        61
        59        62        62        63        62        64        62        65
        65        66        65        67        67        68        67        69
        67        70        65        71        71        72        71        73
        71        74        75        79        75        83        75        87
        79        80        79        81        79        82        83        84
        83        85        83        86        87        88        87        89
        87        90        75        76        76        77        76        78
        76        91        91        92        91        93        91        97
        98        99        97        94        94        98        94        95
        94        96        99       100        99       101        99       102
       102       103       102       110       102       104       110       111
       110       112       110       113       104       105       105       107
       105       106       107       108       107       109       107       119
       119       120       119       121       119       122       122       123
       122       124       122       125       125       126       125       127
       127       128       127       129       129       130       129       131
       129       132       132       133       132       134       134       135
       134       136       136       137       136       138       136       139
       139       140       139       141       141       142       141       143
       143       144       143       145       143       146       146       147
       146       148       148       149       148       150       150       151
       150       152       150       153       153       154       153       155
       153       156       156       157       156       158       156       159
       159       160       159       161       159       162       162       163
       162       164       162       165       113       114       114       116
       114       115       116       117       116       118       116       166
       166       167       166       168       166       169       169       170
       169       171       169       172       172       173       172       174
       172       175       175       176       175       177       175       178
       178       179       178       180       178       181       181       182
       181       183       181       184       184       185       184       186
       184       187       187       188       187       189       187       190
       190       191       190       192       190       193       193       194
       193       195       193       196       196       197       196       198
       196       199       199       200       199       201       199       202
       202       203       202       204       202       205       205       206
       205       207       205       208       208       209       208       210
       208       211       211       212       211       213       211       214
       215       216       215       220       215       224       216       217
       216       218       216       219       220       221       220       222
       220       223       224       225       224       226       224       227
       215       228       228       229       228       230       228       231
       231       232       231       233       231       237       238       239
       237       234       234       238       234       235       234       236
       239       240       239       241       239       242       242       243
       242       250       242       244       250       251       250       252
       250       253       244       245       245       247       245       246
       247       248       247       249       247       259       259       260
       259       261       259       262       262       263       262       264
       262       265       265       266       265       267       265       268
       268       269       268       270       268       271       271       272
       271       273       271       274       274       275       274       276
       274       277       277       278       277       279       279       280
       279       281       281       282       281       283       281       284
       284       285       284       286       286       287       286       288
       288       289       288       290       288       291       291       292
       291       293       291       294       294       295       294       296
       294       297       297       298       297       299       297       300
       300       301       300       302       300       303       253       254
       254       256       254       255       256       257       256       258
       256       304       304       305       304       306       304       307
       307       308       307       309       307       310       310       311
       310       312       310       313       313       314       313       315
       313       316       316       317       316       318       316       319
       319       320       319       321       319       322       322       323
       322       324       322       325       325       326       325       327
       325       328       328       329       328       330       328       331
       331       332       331       333       331       334       334       335
       334       336       334       337       337       338       337       339
       337       340       340       341       340       342       340       343
       343       344       343       345       343       346       346       347
       346       348       346       349       349       350       349       351
       349       352       353       354       353       355       353       356
       353       357       361       359       359       357       359       360
       357       358       357       362       370       369       362       363
       362       364       362       368       368       365       365       369
       365       366       365       367       370       371       370       372
       370       373       373       374       373       381       373       375
       381       382       381       383       381       384       375       376
       376       378       376       377       378       379       378       380
       378       390       390       391       390       392       390       393
       393       394       393       395       393       396       396       397
       396       398       398       399       398       400       400       401
       400       402       400       403       403       404       403       405
       405       406       405       407       407       408       407       409
       407       410       410       411       410       412       412       413
       412       414       414       415       414       416       414       417
       417       418       417       419       419       420       419       421
       421       422       421       423       421       424       424       425
       424       426       424       427       427       428       427       429
       427       430       430       431       430       432       430       433
       433       434       433       435       433       436       384       385
       385       387       385       386       387       388       387       389
       387       437       437       438       437       439       437       440
       440       441       440       442       440       443       443       444
       443       445       443       446       446       447       446       448
       446       449       449       450       449       451       449       452
       452       453       452       454       452       455       455       456
       455       457       455       458       458       459       458       460
       458       461       461       462       461       463       461       464
       464       465       464       466       464       467       467       468
       467       469       467       470       470       471       470       472
       470       473       473       474       473       475       473       476
       476       477       476       478       476       479       479       480
       479       481       479       482       482       483       482       484
       482       485       486       487       486       488       486       489
       486       490       494       492       492       490       492       493
       490       491       490       495       503       502       495       496
       495       497       495       501       501       498       498       502
       498       499       498       500       503       504       503       505
       503       506       506       507       506       514       506       508
       514       515       514       516       514       517       508       509
       509       511       509       510       511       512       511       513
       511       523       523       524       523       525       523       526
       526       527       526       528       526       529       529       530
       529       531       531       532       531       533       533       534
       533       535       533       536       536       537       536       538
       538       539       538       540       540       541       540       542
       540       543       543       544       543       545       545       546
       545       547       547       548       547       549       547       550
       550       551       550       552       552       553       552       554
       554       555       554       556       554       557       557       558
       557       559       557       560       560       561       560       562
       560       563       563       564       563       565       563       566
       566       567       566       568       566       569       517       518
       518       520       518       519       520       521       520       522
       520       570       570       571       570       572       570       573
       573       574       573       575       573       576       576       577
       576       578       576       579       579       580       579       581
       579       582       582       583       582       584       582       585
       585       586       585       587       585       588       588       589
       588       590       588       591       591       592       591       593
       591       594       594       595       594       596       594       597
       597       598       597       599       597       600       600       601
       600       602       600       603       603       604       603       605
       603       606       606       607       606       608       606       609
       609       610       609       611       609       612       612       613
       612       614       612       615       615       616       615       617
       615       618       619       621       619       620       621       622
       619       665       665       666       665       667       665       662
       662       663       662       664       619       623       623       624
       623       625       623       626       626       657       657       662
       657       658       658       659       658       660       658       661
       626       627       627       628       627       629       629       630
       629       631       629       632       632       633       632       655
       655       656       655       657       632       634       634       635
       634       644       644       649       649       650       649       651
       649       652       652       653       652       654       652       655
       644       645       645       646       645       647       645       648
       634       636       636       637       636       638       636       639
       639       640       639       641       639       642       642       643
       642       644       642       668       668       669       668       670
       670       671       670       672       670       673       668       674
       674       675       674       676       674       677       677       678
       677       679       677       680       680       681       680       682
       680       683       683       684       683       685       685       686
       685       687       685       688       683       689       689       690
       689       691       689       692       693       694       693       698
       693       702       694       695       694       696       694       697
       698       699       698       700       698       701       702       703
       702       704       702       705       693       706       706       707
       706       708       706       709       709       710       709       711
       709       715       716       717       715       712       712       716
       712       713       712       714       717       718       717       719
       717       720       720       721       720       728       720       722
       728       729       728       730       728       731       722       723
       723       725       723       724       725       726       725       727
       725       737       737       738       737       739       737       740
       740       741       740       742       740       743       743       744
       743       745       743       746       746       747       746       748
       746       749       749       750       749       751       749       752
       752       753       752       754       752       755       755       756
       755       757       757       758       757       759       759       760
       759       761       759       762       762       763       762       764
       764       765       764       766       766       767       766       768
       766       769       769       770       769       771       769       772
       772       773       772       774       772       775       775       776
       775       777       775       778       778       779       778       780
       778       781       731       732       732       734       732       733
       734       735       734       736       734       782       782       783
       782       784       782       785       785       786       785       787
       785       788       788       789       788       790       788       791
       791       792       791       793       791       794       794       795
       794       796       794       797       797       798       797       799
       797       800       800       801       800       802       800       803
       803       804       803       805       803       806       806       807
       806       808       806       809       809       810       809       811
       809       812       812       813       812       814       812       815
       815       816       815       817       815       818       818       819
       818       820       818       821       821       822       821       823
       821       824       824       825       824       826       824       827
       827       828       827       829       827       830       906       907
       906       908       906       909       906       903       903       904
       903       905       903       900       900       901       900       902
       900       897       897       898       897       899       897       894
       894       895       894       896       894       891       891       892
       891       893       891       888       888       889       888       890
       888       885       885       886       885       887       885       882
       882       883       882       884       882       879       879       880
       879       881       879       876       876       877       876       878
       876       873       873       874       873       875       873       870
       870       871       870       872       870       868       868       869
       866       867       866       862       862       863       862       864
       864       865       862       860       860       861       860       855
       855       856       855       857       855       853       853       850
       854       850       851       850       852       850       854       847
       847       848       847       849       847       844       844       845
       844       846       844       831       831       840       831       836
       831       832       840       841       840       842       840       843
       836       837       836       838       836       839       832       833
       832       834       832       835       860       858       858       859
       858       910       910       912       912       913       912       914
       912       915       915       916       915       917       915       918
       918       919       918       920       918       921       921       922
       921       923       921       924       924       925       924       926
       924       927       927       928       927       929       927       930
       930       931       930       932       930       933       933       934
       935       936       935       937       937       938       937       939
       937       940       940       941       940       942       940       943
       943       944       943       945       943       946       946       947
       946       948       946       949       949       950       949       951
       949       952       952       953       952       954       952       955
       955       956       955       957       955       958       958       959
       958       960       958       961       866       868       933       935
       910       911       962       963       962       964       962       965
       962       966       966       967       966       968       966       969
       969       970       969       971       969       975       977       976
       975       972       972       976       972       973       972       974
       977       978       977       979       977       980       980       981
       980       988       980       982       988       989       988       990
       988       991       982       983       983       985       983       984
       985       986       985       987       985       997       997       998
       997       999       997      1000      1000      1001      1000      1002
      1000      1003      1003      1004      1003      1005      1005      1006
      1005      1007      1007      1008      1007      1009      1007      1010
      1010      1011      1010      1012      1012      1013      1012      1014
      1014      1015      1014      1016      1014      1017      1017      1018
      1017      1019      1019      1020      1019      1021      1021      1022
      1021      1023      1021      1024      1024      1025      1024      1026
      1026      1027      1026      1028      1028      1029      1028      1030
      1028      1031      1031      1032      1031      1033      1031      1034
      1034      1035      1034      1036      1034      1037      1037      1038
      1037      1039      1037      1040      1040      1041      1040      1042
      1040      1043       991       992       992       994       992       993
       994       995       994       996       994      1044      1044      1045
      1044      1046      1044      1047      1047      1048      1047      1049
      1047      1050      1050      1051      1050      1052      1050      1053
      1053      1054      1053      1055      1053      1056      1056      1057
      1056      1058      1056      1059      1059      1060      1059      1061
      1059      1062      1062      1063      1062      1064      1062      1065
      1065      1066      1065      1067      1065      1068      1068      1069
      1068      1070      1068      1071      1071      1072      1071      1073
      1071      1074      1074      1075      1074      1076      1074      1077
      1077      1078      1077      1079      1077      1080      1080      1081
      1080      1082      1080      1083      1083      1084      1083      1085
      1083      1086      1086      1087      1086      1088      1086      1089
      1089      1090      1089      1091      1089      1092      1168      1169
      1168      1170      1168      1171      1168      1165      1165      1166
      1165      1167      1165      1162      1162      1163      1162      1164
      1162      1159      1159      1160      1159      1161      1159      1156
      1156      1157      1156      1158      1156      1153      1153      1154
      1153      1155      1153      1150      1150      1151      1150      1152
      1150      1147      1147      1148      1147      1149      1147      1144
      1144      1145      1144      1146      1144      1141      1141      1142
      1141      1143      1141      1138      1138      1139      1138      1140
      1138      1135      1135      1136      1135      1137      1135      1132
      1132      1133      1132      1134      1132      1130      1130      1131
      1128      1129      1128      1124      1124      1125      1124      1126
      1126      1127      1124      1122      1122      1123      1122      1117
      1117      1118      1117      1119      1117      1115      1115      1112
      1116      1112      1113      1112      1114      1112      1116      1109
      1109      1110      1109      1111      1109      1106      1106      1107
      1106      1108      1106      1093      1093      1102      1093      1098
      1093      1094      1102      1103      1102      1104      1102      1105
      1098      1099      1098      1100      1098      1101      1094      1095
      1094      1096      1094      1097      1122      1120      1120      1121
      1120      1172      1172      1174      1174      1175      1174      1176
      1174      1177      1177      1178      1177      1179      1177      1180
      1180      1181      1180      1182      1180      1183      1183      1184
      1183      1185      1183      1186      1186      1187      1186      1188
      1186      1189      1189      1190      1189      1191      1189      1192
      1192      1193      1192      1194      1192      1195      1195      1196
      1197      1198      1197      1199      1199      1200      1199      1201
      1199      1202      1202      1203      1202      1204      1202      1205
      1205      1206      1205      1207      1205      1208      1208      1209
      1208      1210      1208      1211      1211      1212      1211      1213
      1211      1214      1214      1215      1214      1216      1214      1217
      1217      1218      1217      1219      1217      1220      1220      1221
      1220      1222      1220      1223      1128      1130      1195      1197
      1172      1173      1224      1225      1224      1226      1224      1227
      1224      1228      1228      1229      1228      1230      1228      1231
      1231      1232      1231      1233      1231      1237      1239      1238
      1237      1234      1234      1238      1234      1235      1234      1236
      1239      1240      1239      1241      1239      1242      1242      1243
      1242      1250      1242      1244      1250      1251      1250      1252
      1250      1253      1244      1245      1245      1247      1245      1246
      1247      1248      1247      1249      1247      1259      1259      1260
      1259      1261      1259      1262      1262      1263      1262      1264
      1262      1265      1265      1266      1265      1267      1265      1268
      1268      1269      1268      1270      1268      1271      1271      1272
      1271      1273      1271      1274      1274      1275      1274      1276
      1274      1277      1277      1278      1277      1279      1279      1280
      1279      1281      1281      1282      1281      1283      1281      1284
      1284      1285      1284      1286      1284      1287      1287      1288
      1287      1289      1287      1290      1290      1291      1290      1292
      1290      1293      1293      1294      1293      1295      1293      1296
      1296      1297      1296      1298      1296      1299      1299      1300
      1299      1301      1299      1302      1302      1303      1302      1304
      1302      1305      1253      1254      1254      1256      1254      1255
      1256      1257      1256      1258      1256      1306      1306      1307
      1306      1308      1306      1309      1309      1310      1309      1311
      1309      1312      1312      1313      1312      1314      1312      1315
      1315      1316      1315      1317      1315      1318      1318      1319
      1318      1320      1318      1321      1321      1322      1321      1323
      1321      1324      1324      1325      1324      1326      1324      1327
      1327      1328      1327      1329      1327      1330      1330      1331
      1330      1332      1330      1333      1333      1334      1333      1335
      1333      1336      1336      1337      1336      1338      1336      1339
      1339      1340      1339      1341      1339      1342      1342      1343
      1342      1344      1342      1345      1345      1346      1345      1347
      1345      1348      1348      1349      1348      1350      1348      1351
      1351      1352      1351      1353      1351      1354      1430      1431
      1430      1432      1430      1433      1430      1427      1427      1428
      1427      1429      1427      1424      1424      1425      1424      1426
      1424      1421      1421      1422      1421      1423      1421      1418
      1418      1419      1418      1420      1418      1415      1415      1416
      1415      1417      1415      1412      1412      1413      1412      1414
      1412      1409      1409      1410      1409      1411      1409      1406
      1406      1407      1406      1408      1406      1403      1403      1404
      1403      1405      1403      1400      1400      1401      1400      1402
      1400      1397      1397      1398      1397      1399      1397      1394
      1394      1395      1394      1396      1394      1392      1392      1393
      1390      1391      1390      1386      1386      1387      1386      1388
      1388      1389      1386      1384      1384      1385      1384      1379
      1379      1380      1379      1381      1379      1377      1377      1374
      1378      1374      1375      1374      1376      1374      1378      1371
      1371      1372      1371      1373      1371      1368      1368      1369
      1368      1370      1368      1355      1355      1364      1355      1360
      1355      1356      1364      1365      1364      1366      1364      1367
      1360      1361      1360      1362      1360      1363      1356      1357
      1356      1358      1356      1359      1384      1382      1382      1383
      1382      1434      1434      1436      1436      1437      1436      1438
      1436      1439      1439      1440      1439      1441      1439      1442
      1442      1443      1442      1444      1442      1445      1445      1446
      1445      1447      1445      1448      1448      1449      1448      1450
      1448      1451      1451      1452      1451      1453      1451      1454
      1454      1455      1454      1456      1454      1457      1457      1458
      1459      1460      1459      1461      1461      1462      1461      1463
      1461      1464      1464      1465      1464      1466      1464      1467
      1467      1468      1467      1469      1467      1470      1470      1471
      1470      1472      1470      1473      1473      1474      1473      1475
      1473      1476      1476      1477      1476      1478      1476      1479
      1479      1480      1479      1481      1479      1482      1482      1483
      1482      1484      1482      1485      1390      1392      1457      1459
      1434      1435      1561      1562      1561      1563      1561      1564
      1561      1558      1558      1559      1558      1560      1558      1555
      1555      1556      1555      1557      1555      1552      1552      1553
      1552      1554      1552      1549      1549      1550      1549      1551
      1549      1546      1546      1547      1546      1548      1546      1543
      1543      1544      1543      1545      1543      1540      1540      1541
      1540      1542      1540      1537      1537      1538      1537      1539
      1537      1534      1534      1535      1534      1536      1534      1531
      1531      1532      1531      1533      1531      1528      1528      1529
      1528      1530      1528      1525      1525      1526      1525      1527
      1525      1523      1523      1524      1521      1522      1521      1517
      1517      1518      1517      1519      1519      1520      1517      1515
      1515      1516      1515      1510      1510      1511      1510      1512
      1510      1508      1508      1505      1509      1505      1506      1505
      1507      1505      1509      1502      1502      1503      1502      1504
      1502      1499      1499      1500      1499      1501      1499      1486
      1486      1495      1486      1491      1486      1487      1495      1496
      1495      1497      1495      1498      1491      1492      1491      1493
      1491      1494      1487      1488      1487      1489      1487      1490
      1515      1513      1513      1514      1513      1565      1565      1567
      1567      1568      1567      1569      1567      1570      1570      1571
      1570      1572      1570      1573      1573      1574      1573      1575
      1573      1576      1576      1577      1576      1578      1576      1579
      1579      1580      1579      1581      1579      1582      1582      1583
      1582      1584      1582      1585      1585      1586      1585      1587
      1585      1588      1588      1589      1590      1591      1590      1592
      1592      1593      1592      1594      1592      1595      1595      1596
      1595      1597      1595      1598      1598      1599      1598      1600
      1598      1601      1601      1602      1601      1603      1601      1604
      1604      1605      1604      1606      1604      1607      1607      1608
      1607      1609      1607      1610      1610      1611      1610      1612
      1610      1613      1613      1614      1613      1615      1613      1616
      1521      1523      1588      1590      1565      1566      1617      1618
      1617      1619      1617      1620      1617      1621      1621      1622
      1621      1623      1621      1624      1624      1625      1624      1626
      1624      1630      1632      1631      1630      1627      1627      1631
      1627      1628      1627      1629      1632      1633      1632      1634
      1632      1635      1635      1636      1635      1643      1635      1637
      1643      1644      1643      1645      1643      1646      1637      1638
      1638      1640      1638      1639      1640      1641      1640      1642
      1640      1652      1652      1653      1652      1654      1652      1655
      1655      1656      1655      1657      1655      1658      1658      1659
      1658      1660      1658      1661      1661      1662      1661      1663
      1661      1664      1664      1665      1664      1666      1664      1667
      1667      1668      1667      1669      1667      1670      1670      1671
      1670      1672      1672      1673      1672      1674      1674      1675
      1674      1676      1674      1677      1677      1678      1677      1679
      1677      1680      1680      1681      1680      1682      1680      1683
      1683      1684      1683      1685      1683      1686      1686      1687
      1686      1688      1686      1689      1689      1690      1689      1691
      1689      1692      1692      1693      1692      1694      1692      1695
      1695      1696      1695      1697      1695      1698      1646      1647
      1647      1649      1647      1648      1649      1650      1649      1651
      1649      1699      1699      1700      1699      1701      1699      1702
      1702      1703      1702      1704      1702      1705      1705      1706
      1705      1707      1705      1708      1708      1709      1708      1710
      1708      1711      1711      1712      1711      1713      1711      1714
      1714      1715      1714      1716      1714      1717      1717      1718
      1717      1719      1717      1720      1720      1721      1720      1722
      1720      1723      1723      1724      1723      1725      1723      1726
      1726      1727      1726      1728      1726      1729      1729      1730
      1729      1731      1729      1732      1732      1733      1732      1734
      1732      1735      1735      1736      1735      1737      1735      1738
      1738      1739      1738      1740      1738      1741      1741      1742
      1741      1743      1741      1744      1744      1745      1744      1746
      1744      1747      1748      1749      1748      1750      1748      1751
      1748      1752      1756      1754      1754      1752      1754      1755
      1752      1753      1752      1757      1765      1764      1757      1758
      1757      1759      1757      1763      1763      1760      1760      1764
      1760      1761      1760      1762      1765      1766      1765      1767
      1765      1768      1768      1769      1768      1776      1768      1770
      1776      1777      1776      1778      1776      1779      1770      1771
      1771      1773      1771      1772      1773      1774      1773      1775
      1773      1785      1785      1786      1785      1787      1785      1788
      1788      1789      1788      1790      1788      1791      1791      1792
      1791      1793      1793      1794      1793      1795      1795      1796
      1795      1797      1795      1798      1798      1799      1798      1800
      1800      1801      1800      1802      1802      1803      1802      1804
      1802      1805      1805      1806      1805      1807      1807      1808
      1807      1809      1809      1810      1809      1811      1809      1812
      1812      1813      1812      1814      1814      1815      1814      1816
      1816      1817      1816      1818      1816      1819      1819      1820
      1819      1821      1819      1822      1822      1823      1822      1824
      1822      1825      1825      1826      1825      1827      1825      1828
      1828      1829      1828      1830      1828      1831      1779      1780
      1780      1782      1780      1781      1782      1783      1782      1784
      1782      1832      1832      1833      1832      1834      1832      1835
      1835      1836      1835      1837      1835      1838      1838      1839
      1838      1840      1838      1841      1841      1842      1841      1843
      1841      1844      1844      1845      1844      1846      1844      1847
      1847      1848      1847      1849      1847      1850      1850      1851
      1850      1852      1850      1853      1853      1854      1853      1855
      1853      1856      1856      1857      1856      1858      1856      1859
      1859      1860      1859      1861      1859      1862      1862      1863
      1862      1864      1862      1865      1865      1866      1865      1867
      1865      1868      1868      1869      1868      1870      1868      1871
      1871      1872      1871      1873      1871      1874      1874      1875
      1874      1876      1874      1877      1877      1878      1877      1879
      1877      1880      1881      1885      1881      1889      1881      1893
      1885      1886      1885      1887      1885      1888      1889      1890
      1889      1891      1889      1892      1893      1894      1893      1895
      1893      1896      1881      1882      1882      1883      1882      1884
      1882      1897      1897      1898      1897      1899      1897      1903
      1904      1905      1903      1900      1900      1904      1900      1901
      1900      1902      1905      1906      1905      1907      1905      1908
      1908      1909      1908      1916      1908      1910      1916      1917
      1916      1918      1916      1919      1910      1911      1911      1913
      1911      1912      1913      1914      1913      1915      1913      1925
      1925      1926      1925      1927      1925      1928      1928      1929
      1928      1930      1928      1931      1931      1932      1931      1933
      1933      1934      1933      1935      1935      1936      1935      1937
      1935      1938      1938      1939      1938      1940      1940      1941
      1940      1942      1942      1943      1942      1944      1942      1945
      1945      1946      1945      1947      1947      1948      1947      1949
      1949      1950      1949      1951      1949      1952      1952      1953
      1952      1954      1954      1955      1954      1956      1956      1957
      1956      1958      1956      1959      1959      1960      1959      1961
      1959      1962      1962      1963      1962      1964      1962      1965
      1965      1966      1965      1967      1965      1968      1968      1969
      1968      1970      1968      1971      1919      1920      1920      1922
      1920      1921      1922      1923      1922      1924      1922      1972
      1972      1973      1972      1974      1972      1975      1975      1976
      1975      1977      1975      1978      1978      1979      1978      1980
      1978      1981      1981      1982      1981      1983      1981      1984
      1984      1985      1984      1986      1984      1987      1987      1988
      1987      1989      1987      1990      1990      1991      1990      1992
      1990      1993      1993      1994      1993      1995      1993      1996
      1996      1997      1996      1998      1996      1999      1999      2000
      1999      2001      1999      2002      2002      2003      2002      2004
      2002      2005      2005      2006      2005      2007      2005      2008
      2008      2009      2008      2010      2008      2011      2011      2012
      2011      2013      2011      2014      2014      2015      2014      2016
      2014      2017      2017      2018      2017      2019      2017      2020
      2021      2023      2021      2022      2023      2024      2021      2067
      2067      2068      2067      2069      2067      2064      2064      2065
      2064      2066      2021      2025      2025      2026      2025      2027
      2025      2028      2028      2059      2059      2064      2059      2060
      2060      2061      2060      2062      2060      2063      2028      2029
      2029      2030      2029      2031      2031      2032      2031      2033
      2031      2034      2034      2035      2034      2057      2057      2058
      2057      2059      2034      2036      2036      2037      2036      2046
      2046      2051      2051      2052      2051      2053      2051      2054
      2054      2055      2054      2056      2054      2057      2046      2047
      2047      2048      2047      2049      2047      2050      2036      2038
      2038      2039      2038      2040      2038      2041      2041      2042
      2041      2043      2041      2044      2044      2045      2044      2046
      2044      2070      2070      2071      2070      2072      2072      2073
      2072      2074      2072      2075      2070      2076      2076      2077
      2076      2078      2076      2079      2079      2080      2079      2081
      2079      2082      2082      2083      2082      2084      2082      2085
      2085      2086      2085      2087      2087      2088      2087      2089
      2087      2090      2085      2091      2091      2092      2091      2093
      2091      2094      2170      2171      2170      2172      2170      2173
      2170      2167      2167      2168      2167      2169      2167      2164
      2164      2165      2164      2166      2164      2161      2161      2162
      2161      2163      2161      2158      2158      2159      2158      2160
      2158      2155      2155      2156      2155      2157      2155      2152
      2152      2153      2152      2154      2152      2149      2149      2150
      2149      2151      2149      2146      2146      2147      2146      2148
      2146      2143      2143      2144      2143      2145      2143      2140
      2140      2141      2140      2142      2140      2137      2137      2138
      2137      2139      2137      2134      2134      2135      2134      2136
      2134      2132      2132      2133      2130      2131      2130      2126
      2126      2127      2126      2128      2128      2129      2126      2124
      2124      2125      2124      2119      2119      2120      2119      2121
      2119      2117      2117      2114      2118      2114      2115      2114
      2116      2114      2118      2111      2111      2112      2111      2113
      2111      2108      2108      2109      2108      2110      2108      2095
      2095      2104      2095      2100      2095      2096      2104      2105
      2104      2106      2104      2107      2100      2101      2100      2102
      2100      2103      2096      2097      2096      2098      2096      2099
      2124      2122      2122      2123      2122      2174      2174      2176
      2176      2177      2176      2178      2176      2179      2179      2180
      2179      2181      2179      2182      2182      2183      2182      2184
      2182      2185      2185      2186      2185      2187      2185      2188
      2188      2189      2188      2190      2188      2191      2191      2192
      2191      2193      2191      2194      2194      2195      2194      2196
      2194      2197      2197      2198      2199      2200      2199      2201
      2201      2202      2201      2203      2201      2204      2204      2205
      2204      2206      2204      2207      2207      2208      2207      2209
      2207      2210      2210      2211      2210      2212      2210      2213
      2213      2214      2213      2215      2213      2216      2216      2217
      2216      2218      2216      2219      2219      2220      2219      2221
      2219      2222      2222      2223      2222      2224      2222      2225
      2130      2132      2197      2199      2174      2175      2226      2227
      2226      2231      2226      2235      2227      2228      2227      2229
      2227      2230      2231      2232      2231      2233      2231      2234
      2235      2236      2235      2237      2235      2238      2226      2239
      2239      2240      2239      2241      2239      2242      2242      2243
      2242      2244      2242      2248      2249      2250      2248      2245
      2245      2249      2245      2246      2245      2247      2250      2251
      2250      2252      2250      2253      2253      2254      2253      2261
      2253      2255      2261      2262      2261      2263      2261      2264
      2255      2256      2256      2258      2256      2257      2258      2259
      2258      2260      2258      2270      2270      2271      2270      2272
      2270      2273      2273      2274      2273      2275      2273      2276
      2276      2277      2276      2278      2276      2279      2279      2280
      2279      2281      2279      2282      2282      2283      2282      2284
      2282      2285      2285      2286      2285      2287      2285      2288
      2288      2289      2288      2290      2290      2291      2290      2292
      2292      2293      2292      2294      2292      2295      2295      2296
      2295      2297      2297      2298      2297      2299      2299      2300
      2299      2301      2299      2302      2302      2303      2302      2304
      2302      2305      2305      2306      2305      2307      2305      2308
      2308      2309      2308      2310      2308      2311      2311      2312
      2311      2313      2311      2314      2264      2265      2265      2267
      2265      2266      2267      2268      2267      2269      2267      2315
      2315      2316      2315      2317      2315      2318      2318      2319
      2318      2320      2318      2321      2321      2322      2321      2323
      2321      2324      2324      2325      2324      2326      2324      2327
      2327      2328      2327      2329      2327      2330      2330      2331
      2330      2332      2330      2333      2333      2334      2333      2335
      2333      2336      2336      2337      2336      2338      2336      2339
      2339      2340      2339      2341      2339      2342      2342      2343
      2342      2344      2342      2345      2345      2346      2345      2347
      2345      2348      2348      2349      2348      2350      2348      2351
      2351      2352      2351      2353      2351      2354      2354      2355
      2354      2356      2354      2357      2357      2358      2357      2359
      2357      2360      2360      2361      2360      2362      2360      2363
      2364      2366      2364      2365      2366      2367      2364      2410
      2410      2411      2410      2412      2410      2407      2407      2408
      2407      2409      2364      2368      2368      2369      2368      2370
      2368      2371      2371      2402      2402      2407      2402      2403
      2403      2404      2403      2405      2403      2406      2371      2372
      2372      2373      2372      2374      2374      2375      2374      2376
      2374      2377      2377      2378      2377      2400      2400      2401
      2400      2402      2377      2379      2379      2380      2379      2389
      2389      2394      2394      2395      2394      2396      2394      2397
      2397      2398      2397      2399      2397      2400      2389      2390
      2390      2391      2390      2392      2390      2393      2379      2381
      2381      2382      2381      2383      2381      2384      2384      2385
      2384      2386      2384      2387      2387      2388      2387      2389
      2387      2413      2413      2414      2413      2415      2415      2416
      2415      2417      2415      2418      2413      2419      2419      2420
      2419      2421      2419      2422      2422      2423      2422      2424
      2422      2425      2425      2426      2425      2427      2425      2428
      2428      2429      2428      2430      2430      2431      2430      2432
      2430      2433      2428      2434      2434      2435      2434      2436
      2434      2437      2438      2440      2438      2439      2440      2441
      2438      2484      2484      2485      2484      2486      2484      2481
      2481      2482      2481      2483      2438      2442      2442      2443
      2442      2444      2442      2445      2445      2476      2476      2481
      2476      2477      2477      2478      2477      2479      2477      2480
      2445      2446      2446      2447      2446      2448      2448      2449
      2448      2450      2448      2451      2451      2452      2451      2474
      2474      2475      2474      2476      2451      2453      2453      2454
      2453      2463      2463      2468      2468      2469      2468      2470
      2468      2471      2471      2472      2471      2473      2471      2474
      2463      2464      2464      2465      2464      2466      2464      2467
      2453      2455      2455      2456      2455      2457      2455      2458
      2458      2459      2458      2460      2458      2461      2461      2462
      2461      2463      2461      2487      2487      2488      2487      2489
      2489      2490      2489      2491      2489      2492      2487      2493
      2493      2494      2493      2495      2493      2496      2496      2497
      2496      2498      2496      2499      2499      2500      2499      2501
      2499      2502      2502      2503      2502      2504      2504      2505
      2504      2506      2504      2507      2502      2508      2508      2509
      2508      2510      2508      2511      2512      2513      2512      2514
      2512      2515      2512      2516      2516      2517      2516      2518
      2516      2519      2519      2520      2519      2521      2519      2525
      2527      2526      2525      2522      2522      2526      2522      2523
      2522      2524      2527      2528      2527      2529      2527      2530
      2530      2531      2530      2538      2530      2532      2538      2539
      2538      2540      2538      2541      2532      2533      2533      2535
      2533      2534      2535      2536      2535      2537      2535      2547
      2547      2548      2547      2549      2547      2550      2550      2551
      2550      2552      2550      2553      2553      2554      2553      2555
      2555      2556      2555      2557      2557      2558      2557      2559
      2557      2560      2560      2561      2560      2562      2562      2563
      2562      2564      2564      2565      2564      2566      2564      2567
      2567      2568      2567      2569      2569      2570      2569      2571
      2571      2572      2571      2573      2571      2574      2574      2575
      2574      2576      2576      2577      2576      2578      2578      2579
      2578      2580      2578      2581      2581      2582      2581      2583
      2581      2584      2584      2585      2584      2586      2584      2587
      2587      2588      2587      2589      2587      2590      2590      2591
      2590      2592      2590      2593      2541      2542      2542      2544
      2542      2543      2544      2545      2544      2546      2544      2594
      2594      2595      2594      2596      2594      2597      2597      2598
      2597      2599      2597      2600      2600      2601      2600      2602
      2600      2603      2603      2604      2603      2605      2603      2606
      2606      2607      2606      2608      2606      2609      2609      2610
      2609      2611      2609      2612      2612      2613      2612      2614
      2612      2615      2615      2616      2615      2617      2615      2618
      2618      2619      2618      2620      2618      2621      2621      2622
      2621      2623      2621      2624      2624      2625      2624      2626
      2624      2627      2627      2628      2627      2629      2627      2630
      2630      2631      2630      2632      2630      2633      2633      2634
      2633      2635      2633      2636      2636      2637      2636      2638
      2636      2639      2639      2640      2639      2641      2639      2642
      2718      2719      2718      2720      2718      2721      2718      2715
      2715      2716      2715      2717      2715      2712      2712      2713
      2712      2714      2712      2709      2709      2710      2709      2711
      2709      2706      2706      2707      2706      2708      2706      2703
      2703      2704      2703      2705      2703      2700      2700      2701
      2700      2702      2700      2697      2697      2698      2697      2699
      2697      2694      2694      2695      2694      2696      2694      2691
      2691      2692      2691      2693      2691      2688      2688      2689
      2688      2690      2688      2685      2685      2686      2685      2687
      2685      2682      2682      2683      2682      2684      2682      2680
      2680      2681      2678      2679      2678      2674      2674      2675
      2674      2676      2676      2677      2674      2672      2672      2673
      2672      2667      2667      2668      2667      2669      2667      2665
      2665      2662      2666      2662      2663      2662      2664      2662
      2666      2659      2659      2660      2659      2661      2659      2656
      2656      2657      2656      2658      2656      2643      2643      2652
      2643      2648      2643      2644      2652      2653      2652      2654
      2652      2655      2648      2649      2648      2650      2648      2651
      2644      2645      2644      2646      2644      2647      2672      2670
      2670      2671      2670      2722      2722      2724      2724      2725
      2724      2726      2724      2727      2727      2728      2727      2729
      2727      2730      2730      2731      2730      2732      2730      2733
      2733      2734      2733      2735      2733      2736      2736      2737
      2736      2738      2736      2739      2739      2740      2739      2741
      2739      2742      2742      2743      2742      2744      2742      2745
      2745      2746      2747      2748      2747      2749      2749      2750
      2749      2751      2749      2752      2752      2753      2752      2754
      2752      2755      2755      2756      2755      2757      2755      2758
      2758      2759      2758      2760      2758      2761      2761      2762
      2761      2763      2761      2764      2764      2765      2764      2766
      2764      2767      2767      2768      2767      2769      2767      2770
      2770      2771      2770      2772      2770      2773      2678      2680
      2745      2747      2722      2723      2774      2776      2774      2775
      2776      2777      2774      2820      2820      2821      2820      2822
      2820      2817      2817      2818      2817      2819      2774      2778
      2778      2779      2778      2780      2778      2781      2781      2812
      2812      2817      2812      2813      2813      2814      2813      2815
      2813      2816      2781      2782      2782      2783      2782      2784
      2784      2785      2784      2786      2784      2787      2787      2788
      2787      2810      2810      2811      2810      2812      2787      2789
      2789      2790      2789      2799      2799      2804      2804      2805
      2804      2806      2804      2807      2807      2808      2807      2809
      2807      2810      2799      2800      2800      2801      2800      2802
      2800      2803      2789      2791      2791      2792      2791      2793
      2791      2794      2794      2795      2794      2796      2794      2797
      2797      2798      2797      2799      2797      2823      2823      2824
      2823      2825      2825      2826      2825      2827      2825      2828
      2823      2829      2829      2830      2829      2831      2829      2832
      2832      2833      2832      2834      2832      2835      2835      2836
      2835      2837      2835      2838      2838      2839      2838      2840
      2840      2841      2840      2842      2840      2843      2838      2844
      2844      2845      2844      2846      2844      2847      2923      2924
      2923      2925      2923      2926      2923      2920      2920      2921
      2920      2922      2920      2917      2917      2918      2917      2919
      2917      2914      2914      2915      2914      2916      2914      2911
      2911      2912      2911      2913      2911      2908      2908      2909
      2908      2910      2908      2905      2905      2906      2905      2907
      2905      2902      2902      2903      2902      2904      2902      2899
      2899      2900      2899      2901      2899      2896      2896      2897
      2896      2898      2896      2893      2893      2894      2893      2895
      2893      2890      2890      2891      2890      2892      2890      2887
      2887      2888      2887      2889      2887      2885      2885      2886
      2883      2884      2883      2879      2879      2880      2879      2881
      2881      2882      2879      2877      2877      2878      2877      2872
      2872      2873      2872      2874      2872      2870      2870      2867
      2871      2867      2868      2867      2869      2867      2871      2864
      2864      2865      2864      2866      2864      2861      2861      2862
      2861      2863      2861      2848      2848      2857      2848      2853
      2848      2849      2857      2858      2857      2859      2857      2860
      2853      2854      2853      2855      2853      2856      2849      2850
      2849      2851      2849      2852      2877      2875      2875      2876
      2875      2927      2927      2929      2929      2930      2929      2931
      2929      2932      2932      2933      2932      2934      2932      2935
      2935      2936      2935      2937      2935      2938      2938      2939
      2938      2940      2938      2941      2941      2942      2941      2943
      2941      2944      2944      2945      2944      2946      2944      2947
      2947      2948      2947      2949      2947      2950      2950      2951
      2952      2953      2952      2954      2954      2955      2954      2956
      2954      2957      2957      2958      2957      2959      2957      2960
      2960      2961      2960      2962      2960      2963      2963      2964
      2963      2965      2963      2966      2966      2967      2966      2968
      2966      2969      2969      2970      2969      2971      2969      2972
      2972      2973      2972      2974      2972      2975      2975      2976
      2975      2977      2975      2978      2883      2885      2950      2952
      2927      2928      3054      3055      3054      3056      3054      3057
      3054      3051      3051      3052      3051      3053      3051      3048
      3048      3049      3048      3050      3048      3045      3045      3046
      3045      3047      3045      3042      3042      3043      3042      3044
      3042      3039      3039      3040      3039      3041      3039      3036
      3036      3037      3036      3038      3036      3033      3033      3034
      3033      3035      3033      3030      3030      3031      3030      3032
      3030      3027      3027      3028      3027      3029      3027      3024
      3024      3025      3024      3026      3024      3021      3021      3022
      3021      3023      3021      3018      3018      3019      3018      3020
      3018      3016      3016      3017      3014      3015      3014      3010
      3010      3011      3010      3012      3012      3013      3010      3008
      3008      3009      3008      3003      3003      3004      3003      3005
      3003      3001      3001      2998      3002      2998      2999      2998
      3000      2998      3002      2995      2995      2996      2995      2997
      2995      2992      2992      2993      2992      2994      2992      2979
      2979      2988      2979      2984      2979      2980      2988      2989
      2988      2990      2988      2991      2984      2985      2984      2986
      2984      2987      2980      2981      2980      2982      2980      2983
      3008      3006      3006      3007      3006      3058      3058      3060
      3060      3061      3060      3062      3060      3063      3063      3064
      3063      3065      3063      3066      3066      3067      3066      3068
      3066      3069      3069      3070      3069      3071      3069      3072
      3072      3073      3072      3074      3072      3075      3075      3076
      3075      3077      3075      3078      3078      3079      3078      3080
      3078      3081      3081      3082      3083      3084      3083      3085
      3085      3086      3085      3087      3085      3088      3088      3089
      3088      3090      3088      3091      3091      3092      3091      3093
      3091      3094      3094      3095      3094      3096      3094      3097
      3097      3098      3097      3099      3097      3100      3100      3101
      3100      3102      3100      3103      3103      3104      3103      3105
      3103      3106      3106      3107      3106      3108      3106      3109
      3014      3016      3081      3083      3058      3059      3110      3111
      3110      3112      3110      3113      3110      3114      3114      3115
      3114      3116      3114      3117      3117      3118      3117      3119
      3117      3123      3125      3124      3123      3120      3120      3124
      3120      3121      3120      3122      3125      3126      3125      3127
      3125      3128      3128      3129      3128      3136      3128      3130
      3136      3137      3136      3138      3136      3139      3130      3131
      3131      3133      3131      3132      3133      3134      3133      3135
      3133      3145      3145      3146      3145      3147      3145      3148
      3148      3149      3148      3150      3148      3151      3151      3152
      3151      3153      3151      3154      3154      3155      3154      3156
      3154      3157      3157      3158      3157      3159      3157      3160
      3160      3161      3160      3162      3160      3163      3163      3164
      3163      3165      3165      3166      3165      3167      3167      3168
      3167      3169      3167      3170      3170      3171      3170      3172
      3170      3173      3173      3174      3173      3175      3173      3176
      3176      3177      3176      3178      3176      3179      3179      3180
      3179      3181      3179      3182      3182      3183      3182      3184
      3182      3185      3185      3186      3185      3187      3185      3188
      3188      3189      3188      3190      3188      3191      3139      3140
      3140      3142      3140      3141      3142      3143      3142      3144
      3142      3192      3192      3193      3192      3194      3192      3195
      3195      3196      3195      3197      3195      3198      3198      3199
      3198      3200      3198      3201      3201      3202      3201      3203
      3201      3204      3204      3205      3204      3206      3204      3207
      3207      3208      3207      3209      3207      3210      3210      3211
      3210      3212      3210      3213      3213      3214      3213      3215
      3213      3216      3216      3217      3216      3218      3216      3219
      3219      3220      3219      3221      3219      3222      3222      3223
      3222      3224      3222      3225      3225      3226      3225      3227
      3225      3228      3228      3229      3228      3230      3228      3231
      3231      3232      3231      3233      3231      3234      3234      3235
      3234      3236      3234      3237      3237      3238      3237      3239
      3237      3240      3316      3317      3316      3318      3316      3319
      3316      3313      3313      3314      3313      3315      3313      3310
      3310      3311      3310      3312      3310      3307      3307      3308
      3307      3309      3307      3304      3304      3305      3304      3306
      3304      3301      3301      3302      3301      3303      3301      3298
      3298      3299      3298      3300      3298      3295      3295      3296
      3295      3297      3295      3292      3292      3293      3292      3294
      3292      3289      3289      3290      3289      3291      3289      3286
      3286      3287      3286      3288      3286      3283      3283      3284
      3283      3285      3283      3280      3280      3281      3280      3282
      3280      3278      3278      3279      3276      3277      3276      3272
      3272      3273      3272      3274      3274      3275      3272      3270
      3270      3271      3270      3265      3265      3266      3265      3267
      3265      3263      3263      3260      3264      3260      3261      3260
      3262      3260      3264      3257      3257      3258      3257      3259
      3257      3254      3254      3255      3254      3256      3254      3241
      3241      3250      3241      3246      3241      3242      3250      3251
      3250      3252      3250      3253      3246      3247      3246      3248
      3246      3249      3242      3243      3242      3244      3242      3245
      3270      3268      3268      3269      3268      3320      3320      3322
      3322      3323      3322      3324      3322      3325      3325      3326
      3325      3327      3325      3328      3328      3329      3328      3330
      3328      3331      3331      3332      3331      3333      3331      3334
      3334      3335      3334      3336      3334      3337      3337      3338
      3337      3339      3337      3340      3340      3341      3340      3342
      3340      3343      3343      3344      3345      3346      3345      3347
      3347      3348      3347      3349      3347      3350      3350      3351
      3350      3352      3350      3353      3353      3354      3353      3355
      3353      3356      3356      3357      3356      3358      3356      3359
      3359      3360      3359      3361      3359      3362      3362      3363
      3362      3364      3362      3365      3365      3366      3365      3367
      3365      3368      3368      3369      3368      3370      3368      3371
      3276      3278      3343      3345      3320      3321      3447      3448
      3447      3449      3447      3450      3447      3444      3444      3445
      3444      3446      3444      3441      3441      3442      3441      3443
      3441      3438      3438      3439      3438      3440      3438      3435
      3435      3436      3435      3437      3435      3432      3432      3433
      3432      3434      3432      3429      3429      3430      3429      3431
      3429      3426      3426      3427      3426      3428      3426      3423
      3423      3424      3423      3425      3423      3420      3420      3421
      3420      3422      3420      3417      3417      3418      3417      3419
      3417      3414      3414      3415      3414      3416      3414      3411
      3411      3412      3411      3413      3411      3409      3409      3410
      3407      3408      3407      3403      3403      3404      3403      3405
      3405      3406      3403      3401      3401      3402      3401      3396
      3396      3397      3396      3398      3396      3394      3394      3391
      3395      3391      3392      3391      3393      3391      3395      3388
      3388      3389      3388      3390      3388      3385      3385      3386
      3385      3387      3385      3372      3372      3381      3372      3377
      3372      3373      3381      3382      3381      3383      3381      3384
      3377      3378      3377      3379      3377      3380      3373      3374
      3373      3375      3373      3376      3401      3399      3399      3400
      3399      3451      3451      3453      3453      3454      3453      3455
      3453      3456      3456      3457      3456      3458      3456      3459
      3459      3460      3459      3461      3459      3462      3462      3463
      3462      3464      3462      3465      3465      3466      3465      3467
      3465      3468      3468      3469      3468      3470      3468      3471
      3471      3472      3471      3473      3471      3474      3474      3475
      3476      3477      3476      3478      3478      3479      3478      3480
      3478      3481      3481      3482      3481      3483      3481      3484
      3484      3485      3484      3486      3484      3487      3487      3488
      3487      3489      3487      3490      3490      3491      3490      3492
      3490      3493      3493      3494      3493      3495      3493      3496
      3496      3497      3496      3498      3496      3499      3499      3500
      3499      3501      3499      3502      3407      3409      3474      3476
      3451      3452      3503      3504      3503      3505      3503      3506
      3503      3507      3507      3508      3507      3509      3507      3510
      3510      3511      3510      3512      3510      3516      3518      3517
      3516      3513      3513      3517      3513      3514      3513      3515
      3518      3519      3518      3520      3518      3521      3521      3522
      3521      3529      3521      3523      3529      3530      3529      3531
      3529      3532      3523      3524      3524      3526      3524      3525
      3526      3527      3526      3528      3526      3538      3538      3539
      3538      3540      3538      3541      3541      3542      3541      3543
      3541      3544      3544      3545      3544      3546      3544      3547
      3547      3548      3547      3549      3547      3550      3550      3551
      3550      3552      3550      3553      3553      3554      3553      3555
      3553      3556      3556      3557      3556      3558      3558      3559
      3558      3560      3560      3561      3560      3562      3560      3563
      3563      3564      3563      3565      3563      3566      3566      3567
      3566      3568      3566      3569      3569      3570      3569      3571
      3569      3572      3572      3573      3572      3574      3572      3575
      3575      3576      3575      3577      3575      3578      3578      3579
      3578      3580      3578      3581      3581      3582      3581      3583
      3581      3584      3532      3533      3533      3535      3533      3534
      3535      3536      3535      3537      3535      3585      3585      3586
      3585      3587      3585      3588      3588      3589      3588      3590
      3588      3591      3591      3592      3591      3593      3591      3594
      3594      3595      3594      3596      3594      3597      3597      3598
      3597      3599      3597      3600      3600      3601      3600      3602
      3600      3603      3603      3604      3603      3605      3603      3606
      3606      3607      3606      3608      3606      3609      3609      3610
      3609      3611      3609      3612      3612      3613      3612      3614
      3612      3615      3615      3616      3615      3617      3615      3618
      3618      3619      3618      3620      3618      3621      3621      3622
      3621      3623      3621      3624      3624      3625      3624      3626
      3624      3627      3627      3628      3627      3629      3627      3630
      3630      3631      3630      3632      3630      3633      3709      3710
      3709      3711      3709      3712      3709      3706      3706      3707
      3706      3708      3706      3703      3703      3704      3703      3705
      3703      3700      3700      3701      3700      3702      3700      3697
      3697      3698      3697      3699      3697      3694      3694      3695
      3694      3696      3694      3691      3691      3692      3691      3693
      3691      3688      3688      3689      3688      3690      3688      3685
      3685      3686      3685      3687      3685      3682      3682      3683
      3682      3684      3682      3679      3679      3680      3679      3681
      3679      3676      3676      3677      3676      3678      3676      3673
      3673      3674      3673      3675      3673      3671      3671      3672
      3669      3670      3669      3665      3665      3666      3665      3667
      3667      3668      3665      3663      3663      3664      3663      3658
      3658      3659      3658      3660      3658      3656      3656      3653
      3657      3653      3654      3653      3655      3653      3657      3650
      3650      3651      3650      3652      3650      3647      3647      3648
      3647      3649      3647      3634      3634      3643      3634      3639
      3634      3635      3643      3644      3643      3645      3643      3646
      3639      3640      3639      3641      3639      3642      3635      3636
      3635      3637      3635      3638      3663      3661      3661      3662
      3661      3713      3713      3715      3715      3716      3715      3717
      3715      3718      3718      3719      3718      3720      3718      3721
      3721      3722      3721      3723      3721      3724      3724      3725
      3724      3726      3724      3727      3727      3728      3727      3729
      3727      3730      3730      3731      3730      3732      3730      3733
      3733      3734      3733      3735      3733      3736      3736      3737
      3738      3739      3738      3740      3740      3741      3740      3742
      3740      3743      3743      3744      3743      3745      3743      3746
      3746      3747      3746      3748      3746      3749      3749      3750
      3749      3751      3749      3752      3752      3753      3752      3754
      3752      3755      3755      3756      3755      3757      3755      3758
      3758      3759      3758      3760      3758      3761      3761      3762
      3761      3763      3761      3764      3669      3671      3736      3738
      3713      3714      3840      3841      3840      3842      3840      3843
      3840      3837      3837      3838      3837      3839      3837      3834
      3834      3835      3834      3836      3834      3831      3831      3832
      3831      3833      3831      3828      3828      3829      3828      3830
      3828      3825      3825      3826      3825      3827      3825      3822
      3822      3823      3822      3824      3822      3819      3819      3820
      3819      3821      3819      3816      3816      3817      3816      3818
      3816      3813      3813      3814      3813      3815      3813      3810
      3810      3811      3810      3812      3810      3807      3807      3808
      3807      3809      3807      3804      3804      3805      3804      3806
      3804      3802      3802      3803      3800      3801      3800      3796
      3796      3797      3796      3798      3798      3799      3796      3794
      3794      3795      3794      3789      3789      3790      3789      3791
      3789      3787      3787      3784      3788      3784      3785      3784
      3786      3784      3788      3781      3781      3782      3781      3783
      3781      3778      3778      3779      3778      3780      3778      3765
      3765      3774      3765      3770      3765      3766      3774      3775
      3774      3776      3774      3777      3770      3771      3770      3772
      3770      3773      3766      3767      3766      3768      3766      3769
      3794      3792      3792      3793      3792      3844      3844      3846
      3846      3847      3846      3848      3846      3849      3849      3850
      3849      3851      3849      3852      3852      3853      3852      3854
      3852      3855      3855      3856      3855      3857      3855      3858
      3858      3859      3858      3860      3858      3861      3861      3862
      3861      3863      3861      3864      3864      3865      3864      3866
      3864      3867      3867      3868      3869      3870      3869      3871
      3871      3872      3871      3873      3871      3874      3874      3875
      3874      3876      3874      3877      3877      3878      3877      3879
      3877      3880      3880      3881      3880      3882      3880      3883
      3883      3884      3883      3885      3883      3886      3886      3887
      3886      3888      3886      3889      3889      3890      3889      3891
      3889      3892      3892      3893      3892      3894      3892      3895
      3800      3802      3867      3869      3844      3845      3896      3897
      3896      3898      3896      3899      3896      3900      3904      3902
      3902      3900      3902      3903      3900      3901      3900      3905
      3913      3912      3905      3906      3905      3907      3905      3911
      3911      3908      3908      3912      3908      3909      3908      3910
      3913      3914      3913      3915      3913      3916      3916      3917
      3916      3924      3916      3918      3924      3925      3924      3926
      3924      3927      3918      3919      3919      3921      3919      3920
      3921      3922      3921      3923      3921      3933      3933      3934
      3933      3935      3933      3936      3936      3937      3936      3938
      3936      3939      3939      3940      3939      3941      3941      3942
      3941      3943      3943      3944      3943      3945      3943      3946
      3946      3947      3946      3948      3948      3949      3948      3950
      3950      3951      3950      3952      3950      3953      3953      3954
      3953      3955      3955      3956      3955      3957      3957      3958
      3957      3959      3957      3960      3960      3961      3960      3962
      3962      3963      3962      3964      3964      3965      3964      3966
      3964      3967      3967      3968      3967      3969      3967      3970
      3970      3971      3970      3972      3970      3973      3973      3974
      3973      3975      3973      3976      3976      3977      3976      3978
      3976      3979      3927      3928      3928      3930      3928      3929
      3930      3931      3930      3932      3930      3980      3980      3981
      3980      3982      3980      3983      3983      3984      3983      3985
      3983      3986      3986      3987      3986      3988      3986      3989
      3989      3990      3989      3991      3989      3992      3992      3993
      3992      3994      3992      3995      3995      3996      3995      3997
      3995      3998      3998      3999      3998      4000      3998      4001
      4001      4002      4001      4003      4001      4004      4004      4005
      4004      4006      4004      4007      4007      4008      4007      4009
      4007      4010      4010      4011      4010      4012      4010      4013
      4013      4014      4013      4015      4013      4016      4016      4017
      4016      4018      4016      4019      4019      4020      4019      4021
      4019      4022      4022      4023      4022      4024      4022      4025
      4025      4026      4025      4027      4025      4028      4029      4031
      4029      4030      4031      4032      4029      4075      4075      4076
      4075      4077      4075      4072      4072      4073      4072      4074
      4029      4033      4033      4034      4033      4035      4033      4036
      4036      4067      4067      4072      4067      4068      4068      4069
      4068      4070      4068      4071      4036      4037      4037      4038
      4037      4039      4039      4040      4039      4041      4039      4042
      4042      4043      4042      4065      4065      4066      4065      4067
      4042      4044      4044      4045      4044      4054      4054      4059
      4059      4060      4059      4061      4059      4062      4062      4063
      4062      4064      4062      4065      4054      4055      4055      4056
      4055      4057      4055      4058      4044      4046      4046      4047
      4046      4048      4046      4049      4049      4050      4049      4051
      4049      4052      4052      4053      4052      4054      4052      4078
      4078      4079      4078      4080      4080      4081      4080      4082
      4080      4083      4078      4084      4084      4085      4084      4086
      4084      4087      4087      4088      4087      4089      4087      4090
      4090      4091      4090      4092      4090      4093      4093      4094
      4093      4095      4095      4096      4095      4097      4095      4098
      4093      4099      4099      4100      4099      4101      4099      4102
      4103      4104      4103      4105      4103      4106      4103      4107
      4107      4108      4107      4109      4107      4110      4110      4111
      4110      4112      4110      4116      4118      4117      4116      4113
      4113      4117      4113      4114      4113      4115      4118      4119
      4118      4120      4118      4121      4121      4122      4121      4129
      4121      4123      4129      4130      4129      4131      4129      4132
      4123      4124      4124      4126      4124      4125      4126      4127
      4126      4128      4126      4138      4138      4139      4138      4140
      4138      4141      4141      4142      4141      4143      4141      4144
      4144      4145      4144      4146      4146      4147      4146      4148
      4148      4149      4148      4150      4148      4151      4151      4152
      4151      4153      4153      4154      4153      4155      4155      4156
      4155      4157      4155      4158      4158      4159      4158      4160
      4160      4161      4160      4162      4162      4163      4162      4164
      4162      4165      4165      4166      4165      4167      4167      4168
      4167      4169      4169      4170      4169      4171      4169      4172
      4172      4173      4172      4174      4172      4175      4175      4176
      4175      4177      4175      4178      4178      4179      4178      4180
      4178      4181      4181      4182      4181      4183      4181      4184
      4132      4133      4133      4135      4133      4134      4135      4136
      4135      4137      4135      4185      4185      4186      4185      4187
      4185      4188      4188      4189      4188      4190      4188      4191
      4191      4192      4191      4193      4191      4194      4194      4195
      4194      4196      4194      4197      4197      4198      4197      4199
      4197      4200      4200      4201      4200      4202      4200      4203
      4203      4204      4203      4205      4203      4206      4206      4207
      4206      4208      4206      4209      4209      4210      4209      4211
      4209      4212      4212      4213      4212      4214      4212      4215
      4215      4216      4215      4217      4215      4218      4218      4219
      4218      4220      4218      4221      4221      4222      4221      4223
      4221      4224      4224      4225      4224      4226      4224      4227
      4227      4228      4227      4229      4227      4230      4230      4231
      4230      4232      4230      4233      4254      4255      4254      4250
      4254      4234      4254      4259      4234      4235      4234      4236
      4236      4237      4234      4238      4238      4239      4238      4240
      4240      4241      4238      4242      4242      4243      4242      4244
      4244      4245      4242      4246      4246      4247      4246      4250
      4250      4251      4250      4252      4252      4253      4246      4248
      4248      4249      4259      4256      4256      4260      4256      4257
      4256      4258      4260      4261      4261      4262      4261      4263
      4261      4264      4264      4265      4264      4272      4264      4266
      4272      4273      4272      4274      4272      4275      4266      4267
      4267      4269      4267      4268      4269      4270      4269      4271
      4269      4281      4281      4282      4281      4283      4281      4284
      4284      4285      4284      4286      4284      4287      4287      4288
      4287      4289      4289      4290      4289      4291      4291      4292
      4291      4293      4291      4294      4294      4295      4294      4296
      4296      4297      4296      4298      4298      4299      4298      4300
      4298      4301      4301      4302      4301      4303      4303      4304
      4303      4305      4305      4306      4305      4307      4305      4308
      4308      4309      4308      4310      4310      4311      4310      4312
      4312      4313      4312      4314      4312      4315      4315      4316
      4315      4317      4315      4318      4318      4319      4318      4320
      4318      4321      4321      4322      4321      4323      4321      4324
      4324      4325      4324      4326      4324      4327      4275      4276
      4276      4278      4276      4277      4278      4279      4278      4280
      4278      4328      4328      4329      4328      4330      4328      4331
      4331      4332      4331      4333      4331      4334      4334      4335
      4334      4336      4334      4337      4337      4338      4337      4339
      4337      4340      4340      4341      4340      4342      4340      4343
      4343      4344      4343      4345      4343      4346      4346      4347
      4346      4348      4346      4349      4349      4350      4349      4351
      4349      4352      4352      4353      4352      4354      4352      4355
      4355      4356      4355      4357      4355      4358      4358      4359
      4358      4360      4358      4361      4361      4362      4361      4363
      4361      4364      4364      4365      4364      4366      4364      4367
      4367      4368      4367      4369      4367      4370      4370      4371
      4370      4372      4370      4373      4373      4374      4373      4375
      4373      4376      4377      4378      4377      4379      4377      4380
      4377      4381      4381      4382      4381      4383      4381      4384
      4384      4385      4384      4386      4384      4390      4392      4391
      4390      4387      4387      4391      4387      4388      4387      4389
      4392      4393      4392      4394      4392      4395      4395      4396
      4395      4403      4395      4397      4403      4404      4403      4405
      4403      4406      4397      4398      4398      4400      4398      4399
      4400      4401      4400      4402      4400      4412      4412      4413
      4412      4414      4412      4415      4415      4416      4415      4417
      4415      4418      4418      4419      4418      4420      4420      4421
      4420      4422      4422      4423      4422      4424      4422      4425
      4425      4426      4425      4427      4427      4428      4427      4429
      4429      4430      4429      4431      4429      4432      4432      4433
      4432      4434      4434      4435      4434      4436      4436      4437
      4436      4438      4436      4439      4439      4440      4439      4441
      4441      4442      4441      4443      4443      4444      4443      4445
      4443      4446      4446      4447      4446      4448      4446      4449
      4449      4450      4449      4451      4449      4452      4452      4453
      4452      4454      4452      4455      4455      4456      4455      4457
      4455      4458      4406      4407      4407      4409      4407      4408
      4409      4410      4409      4411      4409      4459      4459      4460
      4459      4461      4459      4462      4462      4463      4462      4464
      4462      4465      4465      4466      4465      4467      4465      4468
      4468      4469      4468      4470      4468      4471      4471      4472
      4471      4473      4471      4474      4474      4475      4474      4476
      4474      4477      4477      4478      4477      4479      4477      4480
      4480      4481      4480      4482      4480      4483      4483      4484
      4483      4485      4483      4486      4486      4487      4486      4488
      4486      4489      4489      4490      4489      4491      4489      4492
      4492      4493      4492      4494      4492      4495      4495      4496
      4495      4497      4495      4498      4498      4499      4498      4500
      4498      4501      4501      4502      4501      4503      4501      4504
      4504      4505      4504      4506      4504      4507      4508      4509
      4508      4510      4508      4511      4508      4512      4512      4513
      4512      4514      4512      4515      4515      4516      4515      4517
      4515      4521      4523      4522      4521      4518      4518      4522
      4518      4519      4518      4520      4523      4524      4523      4525
      4523      4526      4526      4527      4526      4534      4526      4528
      4534      4535      4534      4536      4534      4537      4528      4529
      4529      4531      4529      4530      4531      4532      4531      4533
      4531      4543      4543      4544      4543      4545      4543      4546
      4546      4547      4546      4548      4546      4549      4549      4550
      4549      4551      4551      4552      4551      4553      4553      4554
      4553      4555      4553      4556      4556      4557      4556      4558
      4558      4559      4558      4560      4560      4561      4560      4562
      4560      4563      4563      4564      4563      4565      4565      4566
      4565      4567      4567      4568      4567      4569      4567      4570
      4570      4571      4570      4572      4572      4573      4572      4574
      4574      4575      4574      4576      4574      4577      4577      4578
      4577      4579      4577      4580      4580      4581      4580      4582
      4580      4583      4583      4584      4583      4585      4583      4586
      4586      4587      4586      4588      4586      4589      4537      4538
      4538      4540      4538      4539      4540      4541      4540      4542
      4540      4590      4590      4591      4590      4592      4590      4593
      4593      4594      4593      4595      4593      4596      4596      4597
      4596      4598      4596      4599      4599      4600      4599      4601
      4599      4602      4602      4603      4602      4604      4602      4605
      4605      4606      4605      4607      4605      4608      4608      4609
      4608      4610      4608      4611      4611      4612      4611      4613
      4611      4614      4614      4615      4614      4616      4614      4617
      4617      4618      4617      4619      4617      4620      4620      4621
      4620      4622      4620      4623      4623      4624      4623      4625
      4623      4626      4626      4627      4626      4628      4626      4629
      4629      4630      4629      4631      4629      4632      4632      4633
      4632      4634      4632      4635      4635      4636      4635      4637
      4635      4638      4639      4641      4639      4640      4641      4642
      4639      4685      4685      4686      4685      4687      4685      4682
      4682      4683      4682      4684      4639      4643      4643      4644
      4643      4645      4643      4646      4646      4677      4677      4682
      4677      4678      4678      4679      4678      4680      4678      4681
      4646      4647      4647      4648      4647      4649      4649      4650
      4649      4651      4649      4652      4652      4653      4652      4675
      4675      4676      4675      4677      4652      4654      4654      4655
      4654      4664      4664      4669      4669      4670      4669      4671
      4669      4672      4672      4673      4672      4674      4672      4675
      4664      4665      4665      4666      4665      4667      4665      4668
      4654      4656      4656      4657      4656      4658      4656      4659
      4659      4660      4659      4661      4659      4662      4662      4663
      4662      4664      4662      4688      4688      4689      4688      4690
      4690      4691      4690      4692      4690      4693      4688      4694
      4694      4695      4694      4696      4694      4697      4697      4698
      4697      4699      4697      4700      4700      4701      4700      4702
      4700      4703      4703      4704      4703      4705      4705      4706
      4705      4707      4705      4708      4703      4709      4709      4710
      4709      4711      4709      4712      4713      4714      4713      4715
      4713      4716      4713      4717      4717      4718      4717      4719
      4717      4720      4720      4721      4720      4722      4720      4726
      4728      4727      4726      4723      4723      4727      4723      4724
      4723      4725      4728      4729      4728      4730      4728      4731
      4731      4732      4731      4739      4731      4733      4739      4740
      4739      4741      4739      4742      4733      4734      4734      4736
      4734      4735      4736      4737      4736      4738      4736      4748
      4748      4749      4748      4750      4748      4751      4751      4752
      4751      4753      4751      4754      4754      4755      4754      4756
      4756      4757      4756      4758      4758      4759      4758      4760
      4758      4761      4761      4762      4761      4763      4763      4764
      4763      4765      4765      4766      4765      4767      4765      4768
      4768      4769      4768      4770      4770      4771      4770      4772
      4772      4773      4772      4774      4772      4775      4775      4776
      4775      4777      4777      4778      4777      4779      4779      4780
      4779      4781      4779      4782      4782      4783      4782      4784
      4782      4785      4785      4786      4785      4787      4785      4788
      4788      4789      4788      4790      4788      4791      4791      4792
      4791      4793      4791      4794      4742      4743      4743      4745
      4743      4744      4745      4746      4745      4747      4745      4795
      4795      4796      4795      4797      4795      4798      4798      4799
      4798      4800      4798      4801      4801      4802      4801      4803
      4801      4804      4804      4805      4804      4806      4804      4807
      4807      4808      4807      4809      4807      4810      4810      4811
      4810      4812      4810      4813      4813      4814      4813      4815
      4813      4816      4816      4817      4816      4818      4816      4819
      4819      4820      4819      4821      4819      4822      4822      4823
      4822      4824      4822      4825      4825      4826      4825      4827
      4825      4828      4828      4829      4828      4830      4828      4831
      4831      4832      4831      4833      4831      4834      4834      4835
      4834      4836      4834      4837      4837      4838      4837      4839
      4837      4840      4840      4841      4840      4842      4840      4843
      4919      4920      4919      4921      4919      4922      4919      4916
      4916      4917      4916      4918      4916      4913      4913      4914
      4913      4915      4913      4910      4910      4911      4910      4912
      4910      4907      4907      4908      4907      4909      4907      4904
      4904      4905      4904      4906      4904      4901      4901      4902
      4901      4903      4901      4898      4898      4899      4898      4900
      4898      4895      4895      4896      4895      4897      4895      4892
      4892      4893      4892      4894      4892      4889      4889      4890
      4889      4891      4889      4886      4886      4887      4886      4888
      4886      4883      4883      4884      4883      4885      4883      4881
      4881      4882      4879      4880      4879      4875      4875      4876
      4875      4877      4877      4878      4875      4873      4873      4874
      4873      4868      4868      4869      4868      4870      4868      4866
      4866      4863      4867      4863      4864      4863      4865      4863
      4867      4860      4860      4861      4860      4862      4860      4857
      4857      4858      4857      4859      4857      4844      4844      4853
      4844      4849      4844      4845      4853      4854      4853      4855
      4853      4856      4849      4850      4849      4851      4849      4852
      4845      4846      4845      4847      4845      4848      4873      4871
      4871      4872      4871      4923      4923      4925      4925      4926
      4925      4927      4925      4928      4928      4929      4928      4930
      4928      4931      4931      4932      4931      4933      4931      4934
      4934      4935      4934      4936      4934      4937      4937      4938
      4937      4939      4937      4940      4940      4941      4940      4942
      4940      4943      4943      4944      4943      4945      4943      4946
      4946      4947      4948      4949      4948      4950      4950      4951
      4950      4952      4950      4953      4953      4954      4953      4955
      4953      4956      4956      4957      4956      4958      4956      4959
      4959      4960      4959      4961      4959      4962      4962      4963
      4962      4964      4962      4965      4965      4966      4965      4967
      4965      4968      4968      4969      4968      4970      4968      4971
      4971      4972      4971      4973      4971      4974      4879      4881
      4946      4948      4923      4924      4975      4976      4975      4977
      4975      4978      4975      4979      4979      4980      4979      4981
      4979      4982      4982      4983      4982      4984      4982      4988
      4990      4989      4988      4985      4985      4989      4985      4986
      4985      4987      4990      4991      4990      4992      4990      4993
      4993      4994      4993      5001      4993      4995      5001      5002
      5001      5003      5001      5004      4995      4996      4996      4998
      4996      4997      4998      4999      4998      5000      4998      5010
      5010      5011      5010      5012      5010      5013      5013      5014
      5013      5015      5013      5016      5016      5017      5016      5018
      5016      5019      5019      5020      5019      5021      5019      5022
      5022      5023      5022      5024      5022      5025      5025      5026
      5025      5027      5025      5028      5028      5029      5028      5030
      5030      5031      5030      5032      5032      5033      5032      5034
      5032      5035      5035      5036      5035      5037      5035      5038
      5038      5039      5038      5040      5038      5041      5041      5042
      5041      5043      5041      5044      5044      5045      5044      5046
      5044      5047      5047      5048      5047      5049      5047      5050
      5050      5051      5050      5052      5050      5053      5053      5054
      5053      5055      5053      5056      5004      5005      5005      5007
      5005      5006      5007      5008      5007      5009      5007      5057
      5057      5058      5057      5059      5057      5060      5060      5061
      5060      5062      5060      5063      5063      5064      5063      5065
      5063      5066      5066      5067      5066      5068      5066      5069
      5069      5070      5069      5071      5069      5072      5072      5073
      5072      5074      5072      5075      5075      5076      5075      5077
      5075      5078      5078      5079      5078      5080      5078      5081
      5081      5082      5081      5083      5081      5084      5084      5085
      5084      5086      5084      5087      5087      5088      5087      5089
      5087      5090      5090      5091      5090      5092      5090      5093
      5093      5094      5093      5095      5093      5096      5096      5097
      5096      5098      5096      5099      5099      5100      5099      5101
      5099      5102      5102      5103      5102      5104      5102      5105
      5106      5108      5106      5107      5108      5109      5106      5152
      5152      5153      5152      5154      5152      5149      5149      5150
      5149      5151      5106      5110      5110      5111      5110      5112
      5110      5113      5113      5144      5144      5149      5144      5145
      5145      5146      5145      5147      5145      5148      5113      5114
      5114      5115      5114      5116      5116      5117      5116      5118
      5116      5119      5119      5120      5119      5142      5142      5143
      5142      5144      5119      5121      5121      5122      5121      5131
      5131      5136      5136      5137      5136      5138      5136      5139
      5139      5140      5139      5141      5139      5142      5131      5132
      5132      5133      5132      5134      5132      5135      5121      5123
      5123      5124      5123      5125      5123      5126      5126      5127
      5126      5128      5126      5129      5129      5130      5129      5131
      5129      5155      5155      5156      5155      5157      5157      5158
      5157      5159      5157      5160      5155      5161      5161      5162
      5161      5163      5161      5164      5164      5165      5164      5166
      5164      5167      5167      5168      5167      5169      5167      5170
      5170      5171      5170      5172      5172      5173      5172      5174
      5172      5175      5170      5176      5176      5177      5176      5178
      5176      5179      5180      5182      5180      5181      5182      5183
      5180      5226      5226      5227      5226      5228      5226      5223
      5223      5224      5223      5225      5180      5184      5184      5185
      5184      5186      5184      5187      5187      5218      5218      5223
      5218      5219      5219      5220      5219      5221      5219      5222
      5187      5188      5188      5189      5188      5190      5190      5191
      5190      5192      5190      5193      5193      5194      5193      5216
      5216      5217      5216      5218      5193      5195      5195      5196
      5195      5205      5205      5210      5210      5211      5210      5212
      5210      5213      5213      5214      5213      5215      5213      5216
      5205      5206      5206      5207      5206      5208      5206      5209
      5195      5197      5197      5198      5197      5199      5197      5200
      5200      5201      5200      5202      5200      5203      5203      5204
      5203      5205      5203      5229      5229      5230      5229      5231
      5231      5232      5231      5233      5231      5234      5229      5235
      5235      5236      5235      5237      5235      5238      5238      5239
      5238      5240      5238      5241      5241      5242      5241      5243
      5241      5244      5244      5245      5244      5246      5246      5247
      5246      5248      5246      5249      5244      5250      5250      5251
      5250      5252      5250      5253      5254      5255      5254      5256
      5254      5257      5254      5258      5258      5259      5258      5260
      5258      5261      5261      5262      5261      5263      5261      5267
      5269      5268      5267      5264      5264      5268      5264      5265
      5264      5266      5269      5270      5269      5271      5269      5272
      5272      5273      5272      5280      5272      5274      5280      5281
      5280      5282      5280      5283      5274      5275      5275      5277
      5275      5276      5277      5278      5277      5279      5277      5289
      5289      5290      5289      5291      5289      5292      5292      5293
      5292      5294      5292      5295      5295      5296      5295      5297
      5297      5298      5297      5299      5299      5300      5299      5301
      5299      5302      5302      5303      5302      5304      5304      5305
      5304      5306      5306      5307      5306      5308      5306      5309
      5309      5310      5309      5311      5311      5312      5311      5313
      5313      5314      5313      5315      5313      5316      5316      5317
      5316      5318      5318      5319      5318      5320      5320      5321
      5320      5322      5320      5323      5323      5324      5323      5325
      5323      5326      5326      5327      5326      5328      5326      5329
      5329      5330      5329      5331      5329      5332      5332      5333
      5332      5334      5332      5335      5283      5284      5284      5286
      5284      5285      5286      5287      5286      5288      5286      5336
      5336      5337      5336      5338      5336      5339      5339      5340
      5339      5341      5339      5342      5342      5343      5342      5344
      5342      5345      5345      5346      5345      5347      5345      5348
      5348      5349      5348      5350      5348      5351      5351      5352
      5351      5353      5351      5354      5354      5355      5354      5356
      5354      5357      5357      5358      5357      5359      5357      5360
      5360      5361      5360      5362      5360      5363      5363      5364
      5363      5365      5363      5366      5366      5367      5366      5368
      5366      5369      5369      5370      5369      5371      5369      5372
      5372      5373      5372      5374      5372      5375      5375      5376
      5375      5377      5375      5378      5378      5379      5378      5380
      5378      5381      5381      5382      5381      5383      5381      5384
      5385      5387      5385      5386      5387      5388      5385      5431
      5431      5432      5431      5433      5431      5428      5428      5429
      5428      5430      5385      5389      5389      5390      5389      5391
      5389      5392      5392      5423      5423      5428      5423      5424
      5424      5425      5424      5426      5424      5427      5392      5393
      5393      5394      5393      5395      5395      5396      5395      5397
      5395      5398      5398      5399      5398      5421      5421      5422
      5421      5423      5398      5400      5400      5401      5400      5410
      5410      5415      5415      5416      5415      5417      5415      5418
      5418      5419      5418      5420      5418      5421      5410      5411
      5411      5412      5411      5413      5411      5414      5400      5402
      5402      5403      5402      5404      5402      5405      5405      5406
      5405      5407      5405      5408      5408      5409      5408      5410
      5408      5434      5434      5435      5434      5436      5436      5437
      5436      5438      5436      5439      5434      5440      5440      5441
      5440      5442      5440      5443      5443      5444      5443      5445
      5443      5446      5446      5447      5446      5448      5446      5449
      5449      5450      5449      5451      5451      5452      5451      5453
      5451      5454      5449      5455      5455      5456      5455      5457
      5455      5458      5459      5460      5459      5461      5459      5462
      5459      5463      5467      5465      5465      5463      5465      5466
      5463      5464      5463      5468      5476      5475      5468      5469
      5468      5470      5468      5474      5474      5471      5471      5475
      5471      5472      5471      5473      5476      5477      5476      5478
      5476      5479      5479      5480      5479      5487      5479      5481
      5487      5488      5487      5489      5487      5490      5481      5482
      5482      5484      5482      5483      5484      5485      5484      5486
      5484      5496      5496      5497      5496      5498      5496      5499
      5499      5500      5499      5501      5499      5502      5502      5503
      5502      5504      5504      5505      5504      5506      5506      5507
      5506      5508      5506      5509      5509      5510      5509      5511
      5511      5512      5511      5513      5513      5514      5513      5515
      5513      5516      5516      5517      5516      5518      5518      5519
      5518      5520      5520      5521      5520      5522      5520      5523
      5523      5524      5523      5525      5525      5526      5525      5527
      5527      5528      5527      5529      5527      5530      5530      5531
      5530      5532      5530      5533      5533      5534      5533      5535
      5533      5536      5536      5537      5536      5538      5536      5539
      5539      5540      5539      5541      5539      5542      5490      5491
      5491      5493      5491      5492      5493      5494      5493      5495
      5493      5543      5543      5544      5543      5545      5543      5546
      5546      5547      5546      5548      5546      5549      5549      5550
      5549      5551      5549      5552      5552      5553      5552      5554
      5552      5555      5555      5556      5555      5557      5555      5558
      5558      5559      5558      5560      5558      5561      5561      5562
      5561      5563      5561      5564      5564      5565      5564      5566
      5564      5567      5567      5568      5567      5569      5567      5570
      5570      5571      5570      5572      5570      5573      5573      5574
      5573      5575      5573      5576      5576      5577      5576      5578
      5576      5579      5579      5580      5579      5581      5579      5582
      5582      5583      5582      5584      5582      5585      5585      5586
      5585      5587      5585      5588      5588      5589      5588      5590
      5588      5591      5592      5596      5592      5600      5592      5604
      5596      5597      5596      5598      5596      5599      5600      5601
      5600      5602      5600      5603      5604      5605      5604      5606
      5604      5607      5592      5593      5593      5594      5593      5595
      5593      5608      5608      5609      5608      5610      5608      5614
      5615      5616      5614      5611      5611      5615      5611      5612
      5611      5613      5616      5617      5616      5618      5616      5619
      5619      5620      5619      5627      5619      5621      5627      5628
      5627      5629      5627      5630      5621      5622      5622      5624
      5622      5623      5624      5625      5624      5626      5624      5636
      5636      5637      5636      5638      5636      5639      5639      5640
      5639      5641      5639      5642      5642      5643      5642      5644
      5642      5645      5645      5646      5645      5647      5645      5648
      5648      5649      5648      5650      5648      5651      5651      5652
      5651      5653      5651      5654      5654      5655      5654      5656
      5656      5657      5656      5658      5658      5659      5658      5660
      5658      5661      5661      5662      5661      5663      5661      5664
      5664      5665      5664      5666      5664      5667      5667      5668
      5667      5669      5667      5670      5670      5671      5670      5672
      5670      5673      5673      5674      5673      5675      5673      5676
      5676      5677      5676      5678      5676      5679      5679      5680
      5679      5681      5679      5682      5630      5631      5631      5633
      5631      5632      5633      5634      5633      5635      5633      5683
      5683      5684      5683      5685      5683      5686      5686      5687
      5686      5688      5686      5689      5689      5690      5689      5691
      5689      5692      5692      5693      5692      5694      5692      5695
      5695      5696      5695      5697      5695      5698      5698      5699
      5698      5700      5698      5701      5701      5702      5701      5703
      5701      5704      5704      5705      5704      5706      5704      5707
      5707      5708      5707      5709      5707      5710      5710      5711
      5710      5712      5710      5713      5713      5714      5713      5715
      5713      5716      5716      5717      5716      5718      5716      5719
      5719      5720      5719      5721      5719      5722      5722      5723
      5722      5724      5722      5725      5726      5727      5726      5728
      5726      5729      5726      5730      5734      5732      5732      5730
      5732      5733      5730      5731      5730      5735      5743      5742
      5735      5736      5735      5737      5735      5741      5741      5738
      5738      5742      5738      5739      5738      5740      5743      5744
      5743      5745      5743      5746      5746      5747      5746      5754
      5746      5748      5754      5755      5754      5756      5754      5757
      5748      5749      5749      5751      5749      5750      5751      5752
      5751      5753      5751      5763      5763      5764      5763      5765
      5763      5766      5766      5767      5766      5768      5766      5769
      5769      5770      5769      5771      5771      5772      5771      5773
      5773      5774      5773      5775      5773      5776      5776      5777
      5776      5778      5778      5779      5778      5780      5780      5781
      5780      5782      5780      5783      5783      5784      5783      5785
      5785      5786      5785      5787      5787      5788      5787      5789
      5787      5790      5790      5791      5790      5792      5792      5793
      5792      5794      5794      5795      5794      5796      5794      5797
      5797      5798      5797      5799      5797      5800      5800      5801
      5800      5802      5800      5803      5803      5804      5803      5805
      5803      5806      5806      5807      5806      5808      5806      5809
      5757      5758      5758      5760      5758      5759      5760      5761
      5760      5762      5760      5810      5810      5811      5810      5812
      5810      5813      5813      5814      5813      5815      5813      5816
      5816      5817      5816      5818      5816      5819      5819      5820
      5819      5821      5819      5822      5822      5823      5822      5824
      5822      5825      5825      5826      5825      5827      5825      5828
      5828      5829      5828      5830      5828      5831      5831      5832
      5831      5833      5831      5834      5834      5835      5834      5836
      5834      5837      5837      5838      5837      5839      5837      5840
      5840      5841      5840      5842      5840      5843      5843      5844
      5843      5845      5843      5846      5846      5847      5846      5848
      5846      5849      5849      5850      5849      5851      5849      5852
      5852      5853      5852      5854      5852      5855      5855      5856
      5855      5857      5855      5858      5934      5935      5934      5936
      5934      5937      5934      5931      5931      5932      5931      5933
      5931      5928      5928      5929      5928      5930      5928      5925
      5925      5926      5925      5927      5925      5922      5922      5923
      5922      5924      5922      5919      5919      5920      5919      5921
      5919      5916      5916      5917      5916      5918      5916      5913
      5913      5914      5913      5915      5913      5910      5910      5911
      5910      5912      5910      5907      5907      5908      5907      5909
      5907      5904      5904      5905      5904      5906      5904      5901
      5901      5902      5901      5903      5901      5898      5898      5899
      5898      5900      5898      5896      5896      5897      5894      5895
      5894      5890      5890      5891      5890      5892      5892      5893
      5890      5888      5888      5889      5888      5883      5883      5884
      5883      5885      5883      5881      5881      5878      5882      5878
      5879      5878      5880      5878      5882      5875      5875      5876
      5875      5877      5875      5872      5872      5873      5872      5874
      5872      5859      5859      5868      5859      5864      5859      5860
      5868      5869      5868      5870      5868      5871      5864      5865
      5864      5866      5864      5867      5860      5861      5860      5862
      5860      5863      5888      5886      5886      5887      5886      5938
      5938      5940      5940      5941      5940      5942      5940      5943
      5943      5944      5943      5945      5943      5946      5946      5947
      5946      5948      5946      5949      5949      5950      5949      5951
      5949      5952      5952      5953      5952      5954      5952      5955
      5955      5956      5955      5957      5955      5958      5958      5959
      5958      5960      5958      5961      5961      5962      5963      5964
      5963      5965      5965      5966      5965      5967      5965      5968
      5968      5969      5968      5970      5968      5971      5971      5972
      5971      5973      5971      5974      5974      5975      5974      5976
      5974      5977      5977      5978      5977      5979      5977      5980
      5980      5981      5980      5982      5980      5983      5983      5984
      5983      5985      5983      5986      5986      5987      5986      5988
      5986      5989      5894      5896      5961      5963      5938      5939
      5990      5992      5990      5991      5992      5993      5990      6036
      6036      6037      6036      6038      6036      6033      6033      6034
      6033      6035      5990      5994      5994      5995      5994      5996
      5994      5997      5997      6028      6028      6033      6028      6029
      6029      6030      6029      6031      6029      6032      5997      5998
      5998      5999      5998      6000      6000      6001      6000      6002
      6000      6003      6003      6004      6003      6026      6026      6027
      6026      6028      6003      6005      6005      6006      6005      6015
      6015      6020      6020      6021      6020      6022      6020      6023
      6023      6024      6023      6025      6023      6026      6015      6016
      6016      6017      6016      6018      6016      6019      6005      6007
      6007      6008      6007      6009      6007      6010      6010      6011
      6010      6012      6010      6013      6013      6014      6013      6015
      6013      6039      6039      6040      6039      6041      6041      6042
      6041      6043      6041      6044      6039      6045      6045      6046
      6045      6047      6045      6048      6048      6049      6048      6050
      6048      6051      6051      6052      6051      6053      6051      6054
      6054      6055      6054      6056      6056      6057      6056      6058
      6056      6059      6054      6060      6060      6061      6060      6062
      6060      6063      6064      6066      6064      6065      6066      6067
      6064      6110      6110      6111      6110      6112      6110      6107
      6107      6108      6107      6109      6064      6068      6068      6069
      6068      6070      6068      6071      6071      6102      6102      6107
      6102      6103      6103      6104      6103      6105      6103      6106
      6071      6072      6072      6073      6072      6074      6074      6075
      6074      6076      6074      6077      6077      6078      6077      6100
      6100      6101      6100      6102      6077      6079      6079      6080
      6079      6089      6089      6094      6094      6095      6094      6096
      6094      6097      6097      6098      6097      6099      6097      6100
      6089      6090      6090      6091      6090      6092      6090      6093
      6079      6081      6081      6082      6081      6083      6081      6084
      6084      6085      6084      6086      6084      6087      6087      6088
      6087      6089      6087      6113      6113      6114      6113      6115
      6115      6116      6115      6117      6115      6118      6113      6119
      6119      6120      6119      6121      6119      6122      6122      6123
      6122      6124      6122      6125      6125      6126      6125      6127
      6125      6128      6128      6129      6128      6130      6130      6131
      6130      6132      6130      6133      6128      6134      6134      6135
      6134      6136      6134      6137      6138      6140      6138      6139
      6140      6141      6138      6184      6184      6185      6184      6186
      6184      6181      6181      6182      6181      6183      6138      6142
      6142      6143      6142      6144      6142      6145      6145      6176
      6176      6181      6176      6177      6177      6178      6177      6179
      6177      6180      6145      6146      6146      6147      6146      6148
      6148      6149      6148      6150      6148      6151      6151      6152
      6151      6174      6174      6175      6174      6176      6151      6153
      6153      6154      6153      6163      6163      6168      6168      6169
      6168      6170      6168      6171      6171      6172      6171      6173
      6171      6174      6163      6164      6164      6165      6164      6166
      6164      6167      6153      6155      6155      6156      6155      6157
      6155      6158      6158      6159      6158      6160      6158      6161
      6161      6162      6161      6163      6161      6187      6187      6188
      6187      6189      6189      6190      6189      6191      6189      6192
      6187      6193      6193      6194      6193      6195      6193      6196
      6196      6197      6196      6198      6196      6199      6199      6200
      6199      6201      6199      6202      6202      6203      6202      6204
      6204      6205      6204      6206      6204      6207      6202      6208
      6208      6209      6208      6210      6208      6211      6212      6216
      6212      6220      6212      6224      6216      6217      6216      6218
      6216      6219      6220      6221      6220      6222      6220      6223
      6224      6225      6224      6226      6224      6227      6212      6213
      6213      6214      6213      6215      6213      6228      6228      6229
      6228      6230      6228      6234      6235      6236      6234      6231
      6231      6235      6231      6232      6231      6233      6236      6237
      6236      6238      6236      6239      6239      6240      6239      6247
      6239      6241      6247      6248      6247      6249      6247      6250
      6241      6242      6242      6244      6242      6243      6244      6245
      6244      6246      6244      6256      6256      6257      6256      6258
      6256      6259      6259      6260      6259      6261      6259      6262
      6262      6263      6262      6264      6262      6265      6265      6266
      6265      6267      6265      6268      6268      6269      6268      6270
      6268      6271      6271      6272      6271      6273      6271      6274
      6274      6275      6274      6276      6276      6277      6276      6278
      6278      6279      6278      6280      6278      6281      6281      6282
      6281      6283      6281      6284      6284      6285      6284      6286
      6284      6287      6287      6288      6287      6289      6287      6290
      6290      6291      6290      6292      6290      6293      6293      6294
      6293      6295      6293      6296      6296      6297      6296      6298
      6296      6299      6299      6300      6299      6301      6299      6302
      6250      6251      6251      6253      6251      6252      6253      6254
      6253      6255      6253      6303      6303      6304      6303      6305
      6303      6306      6306      6307      6306      6308      6306      6309
      6309      6310      6309      6311      6309      6312      6312      6313
      6312      6314      6312      6315      6315      6316      6315      6317
      6315      6318      6318      6319      6318      6320      6318      6321
      6321      6322      6321      6323      6321      6324      6324      6325
      6324      6326      6324      6327      6327      6328      6327      6329
      6327      6330      6330      6331      6330      6332      6330      6333
      6333      6334      6333      6335      6333      6336      6336      6337
      6336      6338      6336      6339      6339      6340      6339      6341
      6339      6342      6342      6343      6342      6344      6342      6345
      6346      6348      6346      6347      6348      6349      6346      6392
      6392      6393      6392      6394      6392      6389      6389      6390
      6389      6391      6346      6350      6350      6351      6350      6352
      6350      6353      6353      6384      6384      6389      6384      6385
      6385      6386      6385      6387      6385      6388      6353      6354
      6354      6355      6354      6356      6356      6357      6356      6358
      6356      6359      6359      6360      6359      6382      6382      6383
      6382      6384      6359      6361      6361      6362      6361      6371
      6371      6376      6376      6377      6376      6378      6376      6379
      6379      6380      6379      6381      6379      6382      6371      6372
      6372      6373      6372      6374      6372      6375      6361      6363
      6363      6364      6363      6365      6363      6366      6366      6367
      6366      6368      6366      6369      6369      6370      6369      6371
      6369      6395      6395      6396      6395      6397      6397      6398
      6397      6399      6397      6400      6395      6401      6401      6402
      6401      6403      6401      6404      6404      6405      6404      6406
      6404      6407      6407      6408      6407      6409      6407      6410
      6410      6411      6410      6412      6412      6413      6412      6414
      6412      6415      6410      6416      6416      6417      6416      6418
      6416      6419      6495      6496      6495      6497      6495      6498
      6495      6492      6492      6493      6492      6494      6492      6489
      6489      6490      6489      6491      6489      6486      6486      6487
      6486      6488      6486      6483      6483      6484      6483      6485
      6483      6480      6480      6481      6480      6482      6480      6477
      6477      6478      6477      6479      6477      6474      6474      6475
      6474      6476      6474      6471      6471      6472      6471      6473
      6471      6468      6468      6469      6468      6470      6468      6465
      6465      6466      6465      6467      6465      6462      6462      6463
      6462      6464      6462      6459      6459      6460      6459      6461
      6459      6457      6457      6458      6455      6456      6455      6451
      6451      6452      6451      6453      6453      6454      6451      6449
      6449      6450      6449      6444      6444      6445      6444      6446
      6444      6442      6442      6439      6443      6439      6440      6439
      6441      6439      6443      6436      6436      6437      6436      6438
      6436      6433      6433      6434      6433      6435      6433      6420
      6420      6429      6420      6425      6420      6421      6429      6430
      6429      6431      6429      6432      6425      6426      6425      6427
      6425      6428      6421      6422      6421      6423      6421      6424
      6449      6447      6447      6448      6447      6499      6499      6501
      6501      6502      6501      6503      6501      6504      6504      6505
      6504      6506      6504      6507      6507      6508      6507      6509
      6507      6510      6510      6511      6510      6512      6510      6513
      6513      6514      6513      6515      6513      6516      6516      6517
      6516      6518      6516      6519      6519      6520      6519      6521
      6519      6522      6522      6523      6524      6525      6524      6526
      6526      6527      6526      6528      6526      6529      6529      6530
      6529      6531      6529      6532      6532      6533      6532      6534
      6532      6535      6535      6536      6535      6537      6535      6538
      6538      6539      6538      6540      6538      6541      6541      6542
      6541      6543      6541      6544      6544      6545      6544      6546
      6544      6547      6547      6548      6547      6549      6547      6550
      6455      6457      6522      6524      6499      6500      6551      6555
      6551      6559      6551      6563      6555      6556      6555      6557
      6555      6558      6559      6560      6559      6561      6559      6562
      6563      6564      6563      6565      6563      6566      6551      6552
      6552      6553      6552      6554      6552      6567      6567      6568
      6567      6569      6567      6573      6574      6575      6573      6570
      6570      6574      6570      6571      6570      6572      6575      6576
      6575      6577      6575      6578      6578      6579      6578      6586
      6578      6580      6586      6587      6586      6588      6586      6589
      6580      6581      6581      6583      6581      6582      6583      6584
      6583      6585      6583      6595      6595      6596      6595      6597
      6595      6598      6598      6599      6598      6600      6598      6601
      6601      6602      6601      6603      6603      6604      6603      6605
      6605      6606      6605      6607      6605      6608      6608      6609
      6608      6610      6610      6611      6610      6612      6612      6613
      6612      6614      6612      6615      6615      6616      6615      6617
      6617      6618      6617      6619      6619      6620      6619      6621
      6619      6622      6622      6623      6622      6624      6624      6625
      6624      6626      6626      6627      6626      6628      6626      6629
      6629      6630      6629      6631      6629      6632      6632      6633
      6632      6634      6632      6635      6635      6636      6635      6637
      6635      6638      6638      6639      6638      6640      6638      6641
      6589      6590      6590      6592      6590      6591      6592      6593
      6592      6594      6592      6642      6642      6643      6642      6644
      6642      6645      6645      6646      6645      6647      6645      6648
      6648      6649      6648      6650      6648      6651      6651      6652
      6651      6653      6651      6654      6654      6655      6654      6656
      6654      6657      6657      6658      6657      6659      6657      6660
      6660      6661      6660      6662      6660      6663      6663      6664
      6663      6665      6663      6666      6666      6667      6666      6668
      6666      6669      6669      6670      6669      6671      6669      6672
      6672      6673      6672      6674      6672      6675      6675      6676
      6675      6677      6675      6678      6678      6679      6678      6680
      6678      6681      6681      6682      6681      6683      6681      6684
      6684      6685      6684      6686      6684      6687      6687      6688
      6687      6689      6687      6690      6691      6693      6691      6692
      6693      6694      6691      6737      6737      6738      6737      6739
      6737      6734      6734      6735      6734      6736      6691      6695
      6695      6696      6695      6697      6695      6698      6698      6729
      6729      6734      6729      6730      6730      6731      6730      6732
      6730      6733      6698      6699      6699      6700      6699      6701
      6701      6702      6701      6703      6701      6704      6704      6705
      6704      6727      6727      6728      6727      6729      6704      6706
      6706      6707      6706      6716      6716      6721      6721      6722
      6721      6723      6721      6724      6724      6725      6724      6726
      6724      6727      6716      6717      6717      6718      6717      6719
      6717      6720      6706      6708      6708      6709      6708      6710
      6708      6711      6711      6712      6711      6713      6711      6714
      6714      6715      6714      6716      6714      6740      6740      6741
      6740      6742      6742      6743      6742      6744      6742      6745
      6740      6746      6746      6747      6746      6748      6746      6749
      6749      6750      6749      6751      6749      6752      6752      6753
      6752      6754      6752      6755      6755      6756      6755      6757
      6757      6758      6757      6759      6757      6760      6755      6761
      6761      6762      6761      6763      6761      6764      6765      6767
      6765      6766      6767      6768      6765      6811      6811      6812
      6811      6813      6811      6808      6808      6809      6808      6810
      6765      6769      6769      6770      6769      6771      6769      6772
      6772      6803      6803      6808      6803      6804      6804      6805
      6804      6806      6804      6807      6772      6773      6773      6774
      6773      6775      6775      6776      6775      6777      6775      6778
      6778      6779      6778      6801      6801      6802      6801      6803
      6778      6780      6780      6781      6780      6790      6790      6795
      6795      6796      6795      6797      6795      6798      6798      6799
      6798      6800      6798      6801      6790      6791      6791      6792
      6791      6793      6791      6794      6780      6782      6782      6783
      6782      6784      6782      6785      6785      6786      6785      6787
      6785      6788      6788      6789      6788      6790      6788      6814
      6814      6815      6814      6816      6816      6817      6816      6818
      6816      6819      6814      6820      6820      6821      6820      6822
      6820      6823      6823      6824      6823      6825      6823      6826
      6826      6827      6826      6828      6826      6829      6829      6830
      6829      6831      6831      6832      6831      6833      6831      6834
      6829      6835      6835      6836      6835      6837      6835      6838
      6839      6841      6839      6840      6841      6842      6839      6885
      6885      6886      6885      6887      6885      6882      6882      6883
      6882      6884      6839      6843      6843      6844      6843      6845
      6843      6846      6846      6877      6877      6882      6877      6878
      6878      6879      6878      6880      6878      6881      6846      6847
      6847      6848      6847      6849      6849      6850      6849      6851
      6849      6852      6852      6853      6852      6875      6875      6876
      6875      6877      6852      6854      6854      6855      6854      6864
      6864      6869      6869      6870      6869      6871      6869      6872
      6872      6873      6872      6874      6872      6875      6864      6865
      6865      6866      6865      6867      6865      6868      6854      6856
      6856      6857      6856      6858      6856      6859      6859      6860
      6859      6861      6859      6862      6862      6863      6862      6864
      6862      6888      6888      6889      6888      6890      6890      6891
      6890      6892      6890      6893      6888      6894      6894      6895
      6894      6896      6894      6897      6897      6898      6897      6899
      6897      6900      6900      6901      6900      6902      6900      6903
      6903      6904      6903      6905      6905      6906      6905      6907
      6905      6908      6903      6909      6909      6910      6909      6911
      6909      6912      6913      6915      6913      6914      6915      6916
      6913      6959      6959      6960      6959      6961      6959      6956
      6956      6957      6956      6958      6913      6917      6917      6918
      6917      6919      6917      6920      6920      6951      6951      6956
      6951      6952      6952      6953      6952      6954      6952      6955
      6920      6921      6921      6922      6921      6923      6923      6924
      6923      6925      6923      6926      6926      6927      6926      6949
      6949      6950      6949      6951      6926      6928      6928      6929
      6928      6938      6938      6943      6943      6944      6943      6945
      6943      6946      6946      6947      6946      6948      6946      6949
      6938      6939      6939      6940      6939      6941      6939      6942
      6928      6930      6930      6931      6930      6932      6930      6933
      6933      6934      6933      6935      6933      6936      6936      6937
      6936      6938      6936      6962      6962      6963      6962      6964
      6964      6965      6964      6966      6964      6967      6962      6968
      6968      6969      6968      6970      6968      6971      6971      6972
      6971      6973      6971      6974      6974      6975      6974      6976
      6974      6977      6977      6978      6977      6979      6979      6980
      6979      6981      6979      6982      6977      6983      6983      6984
      6983      6985      6983      6986      7062      7063      7062      7064
      7062      7065      7062      7059      7059      7060      7059      7061
      7059      7056      7056      7057      7056      7058      7056      7053
      7053      7054      7053      7055      7053      7050      7050      7051
      7050      7052      7050      7047      7047      7048      7047      7049
      7047      7044      7044      7045      7044      7046      7044      7041
      7041      7042      7041      7043      7041      7038      7038      7039
      7038      7040      7038      7035      7035      7036      7035      7037
      7035      7032      7032      7033      7032      7034      7032      7029
      7029      7030      7029      7031      7029      7026      7026      7027
      7026      7028      7026      7024      7024      7025      7022      7023
      7022      7018      7018      7019      7018      7020      7020      7021
      7018      7016      7016      7017      7016      7011      7011      7012
      7011      7013      7011      7009      7009      7006      7010      7006
      7007      7006      7008      7006      7010      7003      7003      7004
      7003      7005      7003      7000      7000      7001      7000      7002
      7000      6987      6987      6996      6987      6992      6987      6988
      6996      6997      6996      6998      6996      6999      6992      6993
      6992      6994      6992      6995      6988      6989      6988      6990
      6988      6991      7016      7014      7014      7015      7014      7066
      7066      7068      7068      7069      7068      7070      7068      7071
      7071      7072      7071      7073      7071      7074      7074      7075
      7074      7076      7074      7077      7077      7078      7077      7079
      7077      7080      7080      7081      7080      7082      7080      7083
      7083      7084      7083      7085      7083      7086      7086      7087
      7086      7088      7086      7089      7089      7090      7091      7092
      7091      7093      7093      7094      7093      7095      7093      7096
      7096      7097      7096      7098      7096      7099      7099      7100
      7099      7101      7099      7102      7102      7103      7102      7104
      7102      7105      7105      7106      7105      7107      7105      7108
      7108      7109      7108      7110      7108      7111      7111      7112
      7111      7113      7111      7114      7114      7115      7114      7116
      7114      7117      7022      7024      7089      7091      7066      7067
      7118      7120      7118      7119      7120      7121      7118      7164
      7164      7165      7164      7166      7164      7161      7161      7162
      7161      7163      7118      7122      7122      7123      7122      7124
      7122      7125      7125      7156      7156      7161      7156      7157
      7157      7158      7157      7159      7157      7160      7125      7126
      7126      7127      7126      7128      7128      7129      7128      7130
      7128      7131      7131      7132      7131      7154      7154      7155
      7154      7156      7131      7133      7133      7134      7133      7143
      7143      7148      7148      7149      7148      7150      7148      7151
      7151      7152      7151      7153      7151      7154      7143      7144
      7144      7145      7144      7146      7144      7147      7133      7135
      7135      7136      7135      7137      7135      7138      7138      7139
      7138      7140      7138      7141      7141      7142      7141      7143
      7141      7167      7167      7168      7167      7169      7169      7170
      7169      7171      7169      7172      7167      7173      7173      7174
      7173      7175      7173      7176      7176      7177      7176      7178
      7176      7179      7179      7180      7179      7181      7179      7182
      7182      7183      7182      7184      7184      7185      7184      7186
      7184      7187      7182      7188      7188      7189      7188      7190
      7188      7191      7192      7194      7192      7193      7194      7195
      7192      7238      7238      7239      7238      7240      7238      7235
      7235      7236      7235      7237      7192      7196      7196      7197
      7196      7198      7196      7199      7199      7230      7230      7235
      7230      7231      7231      7232      7231      7233      7231      7234
      7199      7200      7200      7201      7200      7202      7202      7203
      7202      7204      7202      7205      7205      7206      7205      7228
      7228      7229      7228      7230      7205      7207      7207      7208
      7207      7217      7217      7222      7222      7223      7222      7224
      7222      7225      7225      7226      7225      7227      7225      7228
      7217      7218      7218      7219      7218      7220      7218      7221
      7207      7209      7209      7210      7209      7211      7209      7212
      7212      7213      7212      7214      7212      7215      7215      7216
      7215      7217      7215      7241      7241      7242      7241      7243
      7243      7244      7243      7245      7243      7246      7241      7247
      7247      7248      7247      7249      7247      7250      7250      7251
      7250      7252      7250      7253      7253      7254      7253      7255
      7253      7256      7256      7257      7256      7258      7258      7259
      7258      7260      7258      7261      7256      7262      7262      7263
      7262      7264      7262      7265      7341      7342      7341      7343
      7341      7344      7341      7338      7338      7339      7338      7340
      7338      7335      7335      7336      7335      7337      7335      7332
      7332      7333      7332      7334      7332      7329      7329      7330
      7329      7331      7329      7326      7326      7327      7326      7328
      7326      7323      7323      7324      7323      7325      7323      7320
      7320      7321      7320      7322      7320      7317      7317      7318
      7317      7319      7317      7314      7314      7315      7314      7316
      7314      7311      7311      7312      7311      7313      7311      7308
      7308      7309      7308      7310      7308      7305      7305      7306
      7305      7307      7305      7303      7303      7304      7301      7302
      7301      7297      7297      7298      7297      7299      7299      7300
      7297      7295      7295      7296      7295      7290      7290      7291
      7290      7292      7290      7288      7288      7285      7289      7285
      7286      7285      7287      7285      7289      7282      7282      7283
      7282      7284      7282      7279      7279      7280      7279      7281
      7279      7266      7266      7275      7266      7271      7266      7267
      7275      7276      7275      7277      7275      7278      7271      7272
      7271      7273      7271      7274      7267      7268      7267      7269
      7267      7270      7295      7293      7293      7294      7293      7345
      7345      7347      7347      7348      7347      7349      7347      7350
      7350      7351      7350      7352      7350      7353      7353      7354
      7353      7355      7353      7356      7356      7357      7356      7358
      7356      7359      7359      7360      7359      7361      7359      7362
      7362      7363      7362      7364      7362      7365      7365      7366
      7365      7367      7365      7368      7368      7369      7370      7371
      7370      7372      7372      7373      7372      7374      7372      7375
      7375      7376      7375      7377      7375      7378      7378      7379
      7378      7380      7378      7381      7381      7382      7381      7383
      7381      7384      7384      7385      7384      7386      7384      7387
      7387      7388      7387      7389      7387      7390      7390      7391
      7390      7392      7390      7393      7393      7394      7393      7395
      7393      7396      7301      7303      7368      7370      7345      7346
      7397      7399      7397      7398      7399      7400      7397      7443
      7443      7444      7443      7445      7443      7440      7440      7441
      7440      7442      7397      7401      7401      7402      7401      7403
      7401      7404      7404      7435      7435      7440      7435      7436
      7436      7437      7436      7438      7436      7439      7404      7405
      7405      7406      7405      7407      7407      7408      7407      7409
      7407      7410      7410      7411      7410      7433      7433      7434
      7433      7435      7410      7412      7412      7413      7412      7422
      7422      7427      7427      7428      7427      7429      7427      7430
      7430      7431      7430      7432      7430      7433      7422      7423
      7423      7424      7423      7425      7423      7426      7412      7414
      7414      7415      7414      7416      7414      7417      7417      7418
      7417      7419      7417      7420      7420      7421      7420      7422
      7420      7446      7446      7447      7446      7448      7448      7449
      7448      7450      7448      7451      7446      7452      7452      7453
      7452      7454      7452      7455      7455      7456      7455      7457
      7455      7458      7458      7459      7458      7460      7458      7461
      7461      7462      7461      7463      7463      7464      7463      7465
      7463      7466      7461      7467      7467      7468      7467      7469
      7467      7470      7546      7547      7546      7548      7546      7549
      7546      7543      7543      7544      7543      7545      7543      7540
      7540      7541      7540      7542      7540      7537      7537      7538
      7537      7539      7537      7534      7534      7535      7534      7536
      7534      7531      7531      7532      7531      7533      7531      7528
      7528      7529      7528      7530      7528      7525      7525      7526
      7525      7527      7525      7522      7522      7523      7522      7524
      7522      7519      7519      7520      7519      7521      7519      7516
      7516      7517      7516      7518      7516      7513      7513      7514
      7513      7515      7513      7510      7510      7511      7510      7512
      7510      7508      7508      7509      7506      7507      7506      7502
      7502      7503      7502      7504      7504      7505      7502      7500
      7500      7501      7500      7495      7495      7496      7495      7497
      7495      7493      7493      7490      7494      7490      7491      7490
      7492      7490      7494      7487      7487      7488      7487      7489
      7487      7484      7484      7485      7484      7486      7484      7471
      7471      7480      7471      7476      7471      7472      7480      7481
      7480      7482      7480      7483      7476      7477      7476      7478
      7476      7479      7472      7473      7472      7474      7472      7475
      7500      7498      7498      7499      7498      7550      7550      7552
      7552      7553      7552      7554      7552      7555      7555      7556
      7555      7557      7555      7558      7558      7559      7558      7560
      7558      7561      7561      7562      7561      7563      7561      7564
      7564      7565      7564      7566      7564      7567      7567      7568
      7567      7569      7567      7570      7570      7571      7570      7572
      7570      7573      7573      7574      7575      7576      7575      7577
      7577      7578      7577      7579      7577      7580      7580      7581
      7580      7582      7580      7583      7583      7584      7583      7585
      7583      7586      7586      7587      7586      7588      7586      7589
      7589      7590      7589      7591      7589      7592      7592      7593
      7592      7594      7592      7595      7595      7596      7595      7597
      7595      7598      7598      7599      7598      7600      7598      7601
      7506      7508      7573      7575      7550      7551      7602      7604
      7602      7603      7604      7605      7602      7648      7648      7649
      7648      7650      7648      7645      7645      7646      7645      7647
      7602      7606      7606      7607      7606      7608      7606      7609
      7609      7640      7640      7645      7640      7641      7641      7642
      7641      7643      7641      7644      7609      7610      7610      7611
      7610      7612      7612      7613      7612      7614      7612      7615
      7615      7616      7615      7638      7638      7639      7638      7640
      7615      7617      7617      7618      7617      7627      7627      7632
      7632      7633      7632      7634      7632      7635      7635      7636
      7635      7637      7635      7638      7627      7628      7628      7629
      7628      7630      7628      7631      7617      7619      7619      7620
      7619      7621      7619      7622      7622      7623      7622      7624
      7622      7625      7625      7626      7625      7627      7625      7651
      7651      7652      7651      7653      7653      7654      7653      7655
      7653      7656      7651      7657      7657      7658      7657      7659
      7657      7660      7660      7661      7660      7662      7660      7663
      7663      7664      7663      7665      7663      7666      7666      7667
      7666      7668      7668      7669      7668      7670      7668      7671
      7666      7672      7672      7673      7672      7674      7672      7675
      7676      7680      7676      7684      7676      7688      7680      7681
      7680      7682      7680      7683      7684      7685      7684      7686
      7684      7687      7688      7689      7688      7690      7688      7691
      7676      7677      7677      7678      7677      7679      7677      7692
      7692      7693      7692      7694      7692      7698      7699      7700
      7698      7695      7695      7699      7695      7696      7695      7697
      7700      7701      7700      7702      7700      7703      7703      7704
      7703      7711      7703      7705      7711      7712      7711      7713
      7711      7714      7705      7706      7706      7708      7706      7707
      7708      7709      7708      7710      7708      7720      7720      7721
      7720      7722      7720      7723      7723      7724      7723      7725
      7723      7726      7726      7727      7726      7728      7728      7729
      7728      7730      7730      7731      7730      7732      7730      7733
      7733      7734      7733      7735      7735      7736      7735      7737
      7737      7738      7737      7739      7737      7740      7740      7741
      7740      7742      7742      7743      7742      7744      7744      7745
      7744      7746      7744      7747      7747      7748      7747      7749
      7749      7750      7749      7751      7751      7752      7751      7753
      7751      7754      7754      7755      7754      7756      7754      7757
      7757      7758      7757      7759      7757      7760      7760      7761
      7760      7762      7760      7763      7763      7764      7763      7765
      7763      7766      7714      7715      7715      7717      7715      7716
      7717      7718      7717      7719      7717      7767      7767      7768
      7767      7769      7767      7770      7770      7771      7770      7772
      7770      7773      7773      7774      7773      7775      7773      7776
      7776      7777      7776      7778      7776      7779      7779      7780
      7779      7781      7779      7782      7782      7783      7782      7784
      7782      7785      7785      7786      7785      7787      7785      7788
      7788      7789      7788      7790      7788      7791      7791      7792
      7791      7793      7791      7794      7794      7795      7794      7796
      7794      7797      7797      7798      7797      7799      7797      7800
      7800      7801      7800      7802      7800      7803      7803      7804
      7803      7805      7803      7806      7806      7807      7806      7808
      7806      7809      7809      7810      7809      7811      7809      7812
      7812      7813      7812      7814      7812      7815      7816      7817
      7816      7818      7816      7819      7816      7820      7820      7821
      7820      7822      7820      7823      7823      7824      7823      7825
      7823      7829      7831      7830      7829      7826      7826      7830
      7826      7827      7826      7828      7831      7832      7831      7833
      7831      7834      7834      7835      7834      7842      7834      7836
      7842      7843      7842      7844      7842      7845      7836      7837
      7837      7839      7837      7838      7839      7840      7839      7841
      7839      7851      7851      7852      7851      7853      7851      7854
      7854      7855      7854      7856      7854      7857      7857      7858
      7857      7859      7857      7860      7860      7861      7860      7862
      7860      7863      7863      7864      7863      7865      7863      7866
      7866      7867      7866      7868      7866      7869      7869      7870
      7869      7871      7871      7872      7871      7873      7873      7874
      7873      7875      7873      7876      7876      7877      7876      7878
      7876      7879      7879      7880      7879      7881      7879      7882
      7882      7883      7882      7884      7882      7885      7885      7886
      7885      7887      7885      7888      7888      7889      7888      7890
      7888      7891      7891      7892      7891      7893      7891      7894
      7894      7895      7894      7896      7894      7897      7845      7846
      7846      7848      7846      7847      7848      7849      7848      7850
      7848      7898      7898      7899      7898      7900      7898      7901
      7901      7902      7901      7903      7901      7904      7904      7905
      7904      7906      7904      7907      7907      7908      7907      7909
      7907      7910      7910      7911      7910      7912      7910      7913
      7913      7914      7913      7915      7913      7916      7916      7917
      7916      7918      7916      7919      7919      7920      7919      7921
      7919      7922      7922      7923      7922      7924      7922      7925
      7925      7926      7925      7927      7925      7928      7928      7929
      7928      7930      7928      7931      7931      7932      7931      7933
      7931      7934      7934      7935      7934      7936      7934      7937
      7937      7938      7937      7939      7937      7940      7940      7941
      7940      7942      7940      7943      7943      7944      7943      7945
      7943      7946      7947      7948      7947      7949      7947      7950
      7947      7951      7951      7952      7951      7953      7951      7954
      7954      7955      7954      7956      7954      7960      7962      7961
      7960      7957      7957      7961      7957      7958      7957      7959
      7962      7963      7962      7964      7962      7965      7965      7966
      7965      7973      7965      7967      7973      7974      7973      7975
      7973      7976      7967      7968      7968      7970      7968      7969
      7970      7971      7970      7972      7970      7982      7982      7983
      7982      7984      7982      7985      7985      7986      7985      7987
      7985      7988      7988      7989      7988      7990      7990      7991
      7990      7992      7992      7993      7992      7994      7992      7995
      7995      7996      7995      7997      7997      7998      7997      7999
      7999      8000      7999      8001      7999      8002      8002      8003
      8002      8004      8004      8005      8004      8006      8006      8007
      8006      8008      8006      8009      8009      8010      8009      8011
      8011      8012      8011      8013      8013      8014      8013      8015
      8013      8016      8016      8017      8016      8018      8016      8019
      8019      8020      8019      8021      8019      8022      8022      8023
      8022      8024      8022      8025      8025      8026      8025      8027
      8025      8028      7976      7977      7977      7979      7977      7978
      7979      7980      7979      7981      7979      8029      8029      8030
      8029      8031      8029      8032      8032      8033      8032      8034
      8032      8035      8035      8036      8035      8037      8035      8038
      8038      8039      8038      8040      8038      8041      8041      8042
      8041      8043      8041      8044      8044      8045      8044      8046
      8044      8047      8047      8048      8047      8049      8047      8050
      8050      8051      8050      8052      8050      8053      8053      8054
      8053      8055      8053      8056      8056      8057      8056      8058
      8056      8059      8059      8060      8059      8061      8059      8062
      8062      8063      8062      8064      8062      8065      8065      8066
      8065      8067      8065      8068      8068      8069      8068      8070
      8068      8071      8071      8072      8071      8073      8071      8074
      8074      8075      8074      8076      8074      8077      8078      8079
      8078      8083      8078      8087      8079      8080      8079      8081
      8079      8082      8083      8084      8083      8085      8083      8086
      8087      8088      8087      8089      8087      8090      8078      8091
      8091      8092      8091      8093      8091      8094      8094      8095
      8094      8096      8094      8100      8101      8102      8100      8097
      8097      8101      8097      8098      8097      8099      8102      8103
      8102      8104      8102      8105      8105      8106      8105      8113
      8105      8107      8113      8114      8113      8115      8113      8116
      8107      8108      8108      8110      8108      8109      8110      8111
      8110      8112      8110      8122      8122      8123      8122      8124
      8122      8125      8125      8126      8125      8127      8125      8128
      8128      8129      8128      8130      8128      8131      8131      8132
      8131      8133      8131      8134      8134      8135      8134      8136
      8134      8137      8137      8138      8137      8139      8137      8140
      8140      8141      8140      8142      8142      8143      8142      8144
      8144      8145      8144      8146      8144      8147      8147      8148
      8147      8149      8149      8150      8149      8151      8151      8152
      8151      8153      8151      8154      8154      8155      8154      8156
      8154      8157      8157      8158      8157      8159      8157      8160
      8160      8161      8160      8162      8160      8163      8163      8164
      8163      8165      8163      8166      8116      8117      8117      8119
      8117      8118      8119      8120      8119      8121      8119      8167
      8167      8168      8167      8169      8167      8170      8170      8171
      8170      8172      8170      8173      8173      8174      8173      8175
      8173      8176      8176      8177      8176      8178      8176      8179
      8179      8180      8179      8181      8179      8182      8182      8183
      8182      8184      8182      8185      8185      8186      8185      8187
      8185      8188      8188      8189      8188      8190      8188      8191
      8191      8192      8191      8193      8191      8194      8194      8195
      8194      8196      8194      8197      8197      8198      8197      8199
      8197      8200      8200      8201      8200      8202      8200      8203
      8203      8204      8203      8205      8203      8206      8206      8207
      8206      8208      8206      8209      8209      8210      8209      8211
      8209      8212      8212      8213      8212      8214      8212      8215
      8216      8217      8216      8221      8216      8225      8217      8218
      8217      8219      8217      8220      8221      8222      8221      8223
      8221      8224      8225      8226      8225      8227      8225      8228
      8216      8229      8229      8230      8229      8231      8229      8232
      8232      8233      8232      8234      8232      8238      8239      8240
      8238      8235      8235      8239      8235      8236      8235      8237
      8240      8241      8240      8242      8240      8243      8243      8244
      8243      8251      8243      8245      8251      8252      8251      8253
      8251      8254      8245      8246      8246      8248      8246      8247
      8248      8249      8248      8250      8248      8260      8260      8261
      8260      8262      8260      8263      8263      8264      8263      8265
      8263      8266      8266      8267      8266      8268      8266      8269
      8269      8270      8269      8271      8269      8272      8272      8273
      8272      8274      8272      8275      8275      8276      8275      8277
      8275      8278      8278      8279      8278      8280      8280      8281
      8280      8282      8282      8283      8282      8284      8282      8285
      8285      8286      8285      8287      8287      8288      8287      8289
      8289      8290      8289      8291      8289      8292      8292      8293
      8292      8294      8292      8295      8295      8296      8295      8297
      8295      8298      8298      8299      8298      8300      8298      8301
      8301      8302      8301      8303      8301      8304      8254      8255
      8255      8257      8255      8256      8257      8258      8257      8259
      8257      8305      8305      8306      8305      8307      8305      8308
      8308      8309      8308      8310      8308      8311      8311      8312
      8311      8313      8311      8314      8314      8315      8314      8316
      8314      8317      8317      8318      8317      8319      8317      8320
      8320      8321      8320      8322      8320      8323      8323      8324
      8323      8325      8323      8326      8326      8327      8326      8328
      8326      8329      8329      8330      8329      8331      8329      8332
      8332      8333      8332      8334      8332      8335      8335      8336
      8335      8337      8335      8338      8338      8339      8338      8340
      8338      8341      8341      8342      8341      8343      8341      8344
      8344      8345      8344      8346      8344      8347      8347      8348
      8347      8349      8347      8350      8350      8351      8350      8352
      8350      8353      8429      8430      8429      8431      8429      8432
      8429      8426      8426      8427      8426      8428      8426      8423
      8423      8424      8423      8425      8423      8420      8420      8421
      8420      8422      8420      8417      8417      8418      8417      8419
      8417      8414      8414      8415      8414      8416      8414      8411
      8411      8412      8411      8413      8411      8408      8408      8409
      8408      8410      8408      8405      8405      8406      8405      8407
      8405      8402      8402      8403      8402      8404      8402      8399
      8399      8400      8399      8401      8399      8396      8396      8397
      8396      8398      8396      8393      8393      8394      8393      8395
      8393      8391      8391      8392      8389      8390      8389      8385
      8385      8386      8385      8387      8387      8388      8385      8383
      8383      8384      8383      8378      8378      8379      8378      8380
      8378      8376      8376      8373      8377      8373      8374      8373
      8375      8373      8377      8370      8370      8371      8370      8372
      8370      8367      8367      8368      8367      8369      8367      8354
      8354      8363      8354      8359      8354      8355      8363      8364
      8363      8365      8363      8366      8359      8360      8359      8361
      8359      8362      8355      8356      8355      8357      8355      8358
      8383      8381      8381      8382      8381      8433      8433      8435
      8435      8436      8435      8437      8435      8438      8438      8439
      8438      8440      8438      8441      8441      8442      8441      8443
      8441      8444      8444      8445      8444      8446      8444      8447
      8447      8448      8447      8449      8447      8450      8450      8451
      8450      8452      8450      8453      8453      8454      8453      8455
      8453      8456      8456      8457      8458      8459      8458      8460
      8460      8461      8460      8462      8460      8463      8463      8464
      8463      8465      8463      8466      8466      8467      8466      8468
      8466      8469      8469      8470      8469      8471      8469      8472
      8472      8473      8472      8474      8472      8475      8475      8476
      8475      8477      8475      8478      8478      8479      8478      8480
      8478      8481      8481      8482      8481      8483      8481      8484
      8389      8391      8456      8458      8433      8434      8485      8487
      8485      8486      8487      8488      8485      8531      8531      8532
      8531      8533      8531      8528      8528      8529      8528      8530
      8485      8489      8489      8490      8489      8491      8489      8492
      8492      8523      8523      8528      8523      8524      8524      8525
      8524      8526      8524      8527      8492      8493      8493      8494
      8493      8495      8495      8496      8495      8497      8495      8498
      8498      8499      8498      8521      8521      8522      8521      8523
      8498      8500      8500      8501      8500      8510      8510      8515
      8515      8516      8515      8517      8515      8518      8518      8519
      8518      8520      8518      8521      8510      8511      8511      8512
      8511      8513      8511      8514      8500      8502      8502      8503
      8502      8504      8502      8505      8505      8506      8505      8507
      8505      8508      8508      8509      8508      8510      8508      8534
      8534      8535      8534      8536      8536      8537      8536      8538
      8536      8539      8534      8540      8540      8541      8540      8542
      8540      8543      8543      8544      8543      8545      8543      8546
      8546      8547      8546      8548      8546      8549      8549      8550
      8549      8551      8551      8552      8551      8553      8551      8554
      8549      8555      8555      8556      8555      8557      8555      8558
      8559      8563      8559      8567      8559      8571      8563      8564
      8563      8565      8563      8566      8567      8568      8567      8569
      8567      8570      8571      8572      8571      8573      8571      8574
      8559      8560      8560      8561      8560      8562      8560      8575
      8575      8576      8575      8577      8575      8581      8582      8583
      8581      8578      8578      8582      8578      8579      8578      8580
      8583      8584      8583      8585      8583      8586      8586      8587
      8586      8594      8586      8588      8594      8595      8594      8596
      8594      8597      8588      8589      8589      8591      8589      8590
      8591      8592      8591      8593      8591      8603      8603      8604
      8603      8605      8603      8606      8606      8607      8606      8608
      8606      8609      8609      8610      8609      8611      8611      8612
      8611      8613      8613      8614      8613      8615      8613      8616
      8616      8617      8616      8618      8618      8619      8618      8620
      8620      8621      8620      8622      8620      8623      8623      8624
      8623      8625      8625      8626      8625      8627      8627      8628
      8627      8629      8627      8630      8630      8631      8630      8632
      8632      8633      8632      8634      8634      8635      8634      8636
      8634      8637      8637      8638      8637      8639      8637      8640
      8640      8641      8640      8642      8640      8643      8643      8644
      8643      8645      8643      8646      8646      8647      8646      8648
      8646      8649      8597      8598      8598      8600      8598      8599
      8600      8601      8600      8602      8600      8650      8650      8651
      8650      8652      8650      8653      8653      8654      8653      8655
      8653      8656      8656      8657      8656      8658      8656      8659
      8659      8660      8659      8661      8659      8662      8662      8663
      8662      8664      8662      8665      8665      8666      8665      8667
      8665      8668      8668      8669      8668      8670      8668      8671
      8671      8672      8671      8673      8671      8674      8674      8675
      8674      8676      8674      8677      8677      8678      8677      8679
      8677      8680      8680      8681      8680      8682      8680      8683
      8683      8684      8683      8685      8683      8686      8686      8687
      8686      8688      8686      8689      8689      8690      8689      8691
      8689      8692      8692      8693      8692      8694      8692      8695
      8695      8696      8695      8697      8695      8698      8774      8775
      8774      8776      8774      8777      8774      8771      8771      8772
      8771      8773      8771      8768      8768      8769      8768      8770
      8768      8765      8765      8766      8765      8767      8765      8762
      8762      8763      8762      8764      8762      8759      8759      8760
      8759      8761      8759      8756      8756      8757      8756      8758
      8756      8753      8753      8754      8753      8755      8753      8750
      8750      8751      8750      8752      8750      8747      8747      8748
      8747      8749      8747      8744      8744      8745      8744      8746
      8744      8741      8741      8742      8741      8743      8741      8738
      8738      8739      8738      8740      8738      8736      8736      8737
      8734      8735      8734      8730      8730      8731      8730      8732
      8732      8733      8730      8728      8728      8729      8728      8723
      8723      8724      8723      8725      8723      8721      8721      8718
      8722      8718      8719      8718      8720      8718      8722      8715
      8715      8716      8715      8717      8715      8712      8712      8713
      8712      8714      8712      8699      8699      8708      8699      8704
      8699      8700      8708      8709      8708      8710      8708      8711
      8704      8705      8704      8706      8704      8707      8700      8701
      8700      8702      8700      8703      8728      8726      8726      8727
      8726      8778      8778      8780      8780      8781      8780      8782
      8780      8783      8783      8784      8783      8785      8783      8786
      8786      8787      8786      8788      8786      8789      8789      8790
      8789      8791      8789      8792      8792      8793      8792      8794
      8792      8795      8795      8796      8795      8797      8795      8798
      8798      8799      8798      8800      8798      8801      8801      8802
      8803      8804      8803      8805      8805      8806      8805      8807
      8805      8808      8808      8809      8808      8810      8808      8811
      8811      8812      8811      8813      8811      8814      8814      8815
      8814      8816      8814      8817      8817      8818      8817      8819
      8817      8820      8820      8821      8820      8822      8820      8823
      8823      8824      8823      8825      8823      8826      8826      8827
      8826      8828      8826      8829      8734      8736      8801      8803
      8778      8779      8830      8831      8830      8832      8830      8833
      8830      8834      8838      8836      8836      8834      8836      8837
      8834      8835      8834      8839      8847      8846      8839      8840
      8839      8841      8839      8845      8845      8842      8842      8846
      8842      8843      8842      8844      8847      8848      8847      8849
      8847      8850      8850      8851      8850      8858      8850      8852
      8858      8859      8858      8860      8858      8861      8852      8853
      8853      8855      8853      8854      8855      8856      8855      8857
      8855      8867      8867      8868      8867      8869      8867      8870
      8870      8871      8870      8872      8870      8873      8873      8874
      8873      8875      8875      8876      8875      8877      8877      8878
      8877      8879      8877      8880      8880      8881      8880      8882
      8882      8883      8882      8884      8884      8885      8884      8886
      8884      8887      8887      8888      8887      8889      8889      8890
      8889      8891      8891      8892      8891      8893      8891      8894
      8894      8895      8894      8896      8896      8897      8896      8898
      8898      8899      8898      8900      8898      8901      8901      8902
      8901      8903      8901      8904      8904      8905      8904      8906
      8904      8907      8907      8908      8907      8909      8907      8910
      8910      8911      8910      8912      8910      8913      8861      8862
      8862      8864      8862      8863      8864      8865      8864      8866
      8864      8914      8914      8915      8914      8916      8914      8917
      8917      8918      8917      8919      8917      8920      8920      8921
      8920      8922      8920      8923      8923      8924      8923      8925
      8923      8926      8926      8927      8926      8928      8926      8929
      8929      8930      8929      8931      8929      8932      8932      8933
      8932      8934      8932      8935      8935      8936      8935      8937
      8935      8938      8938      8939      8938      8940      8938      8941
      8941      8942      8941      8943      8941      8944      8944      8945
      8944      8946      8944      8947      8947      8948      8947      8949
      8947      8950      8950      8951      8950      8952      8950      8953
      8953      8954      8953      8955      8953      8956      8956      8957
      8956      8958      8956      8959      8959      8960      8959      8961
      8959      8962      8963      8964      8963      8965      8963      8966
      8963      8967      8971      8969      8969      8967      8969      8970
      8967      8968      8967      8972      8980      8979      8972      8973
      8972      8974      8972      8978      8978      8975      8975      8979
      8975      8976      8975      8977      8980      8981      8980      8982
      8980      8983      8983      8984      8983      8991      8983      8985
      8991      8992      8991      8993      8991      8994      8985      8986
      8986      8988      8986      8987      8988      8989      8988      8990
      8988      9000      9000      9001      9000      9002      9000      9003
      9003      9004      9003      9005      9003      9006      9006      9007
      9006      9008      9008      9009      9008      9010      9010      9011
      9010      9012      9010      9013      9013      9014      9013      9015
      9015      9016      9015      9017      9017      9018      9017      9019
      9017      9020      9020      9021      9020      9022      9022      9023
      9022      9024      9024      9025      9024      9026      9024      9027
      9027      9028      9027      9029      9029      9030      9029      9031
      9031      9032      9031      9033      9031      9034      9034      9035
      9034      9036      9034      9037      9037      9038      9037      9039
      9037      9040      9040      9041      9040      9042      9040      9043
      9043      9044      9043      9045      9043      9046      8994      8995
      8995      8997      8995      8996      8997      8998      8997      8999
      8997      9047      9047      9048      9047      9049      9047      9050
      9050      9051      9050      9052      9050      9053      9053      9054
      9053      9055      9053      9056      9056      9057      9056      9058
      9056      9059      9059      9060      9059      9061      9059      9062
      9062      9063      9062      9064      9062      9065      9065      9066
      9065      9067      9065      9068      9068      9069      9068      9070
      9068      9071      9071      9072      9071      9073      9071      9074
      9074      9075      9074      9076      9074      9077      9077      9078
      9077      9079      9077      9080      9080      9081      9080      9082
      9080      9083      9083      9084      9083      9085      9083      9086
      9086      9087      9086      9088      9086      9089      9089      9090
      9089      9091      9089      9092      9092      9093      9092      9094
      9092      9095      9096      9098      9096      9097      9098      9099
      9096      9142      9142      9143      9142      9144      9142      9139
      9139      9140      9139      9141      9096      9100      9100      9101
      9100      9102      9100      9103      9103      9134      9134      9139
      9134      9135      9135      9136      9135      9137      9135      9138
      9103      9104      9104      9105      9104      9106      9106      9107
      9106      9108      9106      9109      9109      9110      9109      9132
      9132      9133      9132      9134      9109      9111      9111      9112
      9111      9121      9121      9126      9126      9127      9126      9128
      9126      9129      9129      9130      9129      9131      9129      9132
      9121      9122      9122      9123      9122      9124      9122      9125
      9111      9113      9113      9114      9113      9115      9113      9116
      9116      9117      9116      9118      9116      9119      9119      9120
      9119      9121      9119      9145      9145      9146      9145      9147
      9147      9148      9147      9149      9147      9150      9145      9151
      9151      9152      9151      9153      9151      9154      9154      9155
      9154      9156      9154      9157      9157      9158      9157      9159
      9157      9160      9160      9161      9160      9162      9162      9163
      9162      9164      9162      9165      9160      9166      9166      9167
      9166      9168      9166      9169      9170      9172      9170      9171
      9172      9173      9170      9216      9216      9217      9216      9218
      9216      9213      9213      9214      9213      9215      9170      9174
      9174      9175      9174      9176      9174      9177      9177      9208
      9208      9213      9208      9209      9209      9210      9209      9211
      9209      9212      9177      9178      9178      9179      9178      9180
      9180      9181      9180      9182      9180      9183      9183      9184
      9183      9206      9206      9207      9206      9208      9183      9185
      9185      9186      9185      9195      9195      9200      9200      9201
      9200      9202      9200      9203      9203      9204      9203      9205
      9203      9206      9195      9196      9196      9197      9196      9198
      9196      9199      9185      9187      9187      9188      9187      9189
      9187      9190      9190      9191      9190      9192      9190      9193
      9193      9194      9193      9195      9193      9219      9219      9220
      9219      9221      9221      9222      9221      9223      9221      9224
      9219      9225      9225      9226      9225      9227      9225      9228
      9228      9229      9228      9230      9228      9231      9231      9232
      9231      9233      9231      9234      9234      9235      9234      9236
      9236      9237      9236      9238      9236      9239      9234      9240
      9240      9241      9240      9242      9240      9243      9319      9320
      9319      9321      9319      9322      9319      9316      9316      9317
      9316      9318      9316      9313      9313      9314      9313      9315
      9313      9310      9310      9311      9310      9312      9310      9307
      9307      9308      9307      9309      9307      9304      9304      9305
      9304      9306      9304      9301      9301      9302      9301      9303
      9301      9298      9298      9299      9298      9300      9298      9295
      9295      9296      9295      9297      9295      9292      9292      9293
      9292      9294      9292      9289      9289      9290      9289      9291
      9289      9286      9286      9287      9286      9288      9286      9283
      9283      9284      9283      9285      9283      9281      9281      9282
      9279      9280      9279      9275      9275      9276      9275      9277
      9277      9278      9275      9273      9273      9274      9273      9268
      9268      9269      9268      9270      9268      9266      9266      9263
      9267      9263      9264      9263      9265      9263      9267      9260
      9260      9261      9260      9262      9260      9257      9257      9258
      9257      9259      9257      9244      9244      9253      9244      9249
      9244      9245      9253      9254      9253      9255      9253      9256
      9249      9250      9249      9251      9249      9252      9245      9246
      9245      9247      9245      9248      9273      9271      9271      9272
      9271      9323      9323      9325      9325      9326      9325      9327
      9325      9328      9328      9329      9328      9330      9328      9331
      9331      9332      9331      9333      9331      9334      9334      9335
      9334      9336      9334      9337      9337      9338      9337      9339
      9337      9340      9340      9341      9340      9342      9340      9343
      9343      9344      9343      9345      9343      9346      9346      9347
      9348      9349      9348      9350      9350      9351      9350      9352
      9350      9353      9353      9354      9353      9355      9353      9356
      9356      9357      9356      9358      9356      9359      9359      9360
      9359      9361      9359      9362      9362      9363      9362      9364
      9362      9365      9365      9366      9365      9367      9365      9368
      9368      9369      9368      9370      9368      9371      9371      9372
      9371      9373      9371      9374      9279      9281      9346      9348
      9323      9324      9395      9396      9395      9391      9395      9375
      9395      9400      9375      9376      9375      9377      9377      9378
      9375      9379      9379      9380      9379      9381      9381      9382
      9379      9383      9383      9384      9383      9385      9385      9386
      9383      9387      9387      9388      9387      9391      9391      9392
      9391      9393      9393      9394      9387      9389      9389      9390
      9400      9397      9397      9401      9397      9398      9397      9399
      9401      9402      9402      9403      9402      9404      9402      9405
      9405      9406      9405      9413      9405      9407      9413      9414
      9413      9415      9413      9416      9407      9408      9408      9410
      9408      9409      9410      9411      9410      9412      9410      9422
      9422      9423      9422      9424      9422      9425      9425      9426
      9425      9427      9425      9428      9428      9429      9428      9430
      9430      9431      9430      9432      9432      9433      9432      9434
      9432      9435      9435      9436      9435      9437      9437      9438
      9437      9439      9439      9440      9439      9441      9439      9442
      9442      9443      9442      9444      9444      9445      9444      9446
      9446      9447      9446      9448      9446      9449      9449      9450
      9449      9451      9451      9452      9451      9453      9453      9454
      9453      9455      9453      9456      9456      9457      9456      9458
      9456      9459      9459      9460      9459      9461      9459      9462
      9462      9463      9462      9464      9462      9465      9465      9466
      9465      9467      9465      9468      9416      9417      9417      9419
      9417      9418      9419      9420      9419      9421      9419      9469
      9469      9470      9469      9471      9469      9472      9472      9473
      9472      9474      9472      9475      9475      9476      9475      9477
      9475      9478      9478      9479      9478      9480      9478      9481
      9481      9482      9481      9483      9481      9484      9484      9485
      9484      9486      9484      9487      9487      9488      9487      9489
      9487      9490      9490      9491      9490      9492      9490      9493
      9493      9494      9493      9495      9493      9496      9496      9497
      9496      9498      9496      9499      9499      9500      9499      9501
      9499      9502      9502      9503      9502      9504      9502      9505
      9505      9506      9505      9507      9505      9508      9508      9509
      9508      9510      9508      9511      9511      9512      9511      9513
      9511      9514      9514      9515      9514      9516      9514      9517
      9518      9519      9518      9520      9518      9521      9518      9522
      9522      9523      9522      9524      9522      9525      9525      9526
      9525      9527      9525      9531      9533      9532      9531      9528
      9528      9532      9528      9529      9528      9530      9533      9534
      9533      9535      9533      9536      9536      9537      9536      9544
      9536      9538      9544      9545      9544      9546      9544      9547
      9538      9539      9539      9541      9539      9540      9541      9542
      9541      9543      9541      9553      9553      9554      9553      9555
      9553      9556      9556      9557      9556      9558      9556      9559
      9559      9560      9559      9561      9561      9562      9561      9563
      9563      9564      9563      9565      9563      9566      9566      9567
      9566      9568      9568      9569      9568      9570      9570      9571
      9570      9572      9570      9573      9573      9574      9573      9575
      9575      9576      9575      9577      9577      9578      9577      9579
      9577      9580      9580      9581      9580      9582      9582      9583
      9582      9584      9584      9585      9584      9586      9584      9587
      9587      9588      9587      9589      9587      9590      9590      9591
      9590      9592      9590      9593      9593      9594      9593      9595
      9593      9596      9596      9597      9596      9598      9596      9599
      9547      9548      9548      9550      9548      9549      9550      9551
      9550      9552      9550      9600      9600      9601      9600      9602
      9600      9603      9603      9604      9603      9605      9603      9606
      9606      9607      9606      9608      9606      9609      9609      9610
      9609      9611      9609      9612      9612      9613      9612      9614
      9612      9615      9615      9616      9615      9617      9615      9618
      9618      9619      9618      9620      9618      9621      9621      9622
      9621      9623      9621      9624      9624      9625      9624      9626
      9624      9627      9627      9628      9627      9629      9627      9630
      9630      9631      9630      9632      9630      9633      9633      9634
      9633      9635      9633      9636      9636      9637      9636      9638
      9636      9639      9639      9640      9639      9641      9639      9642
      9642      9643      9642      9644      9642      9645      9645      9646
      9645      9647      9645      9648      9649      9650      9649      9651
      9649      9652      9649      9653      9653      9654      9653      9655
      9653      9656      9656      9657      9656      9658      9656      9662
      9664      9663      9662      9659      9659      9663      9659      9660
      9659      9661      9664      9665      9664      9666      9664      9667
      9667      9668      9667      9675      9667      9669      9675      9676
      9675      9677      9675      9678      9669      9670      9670      9672
      9670      9671      9672      9673      9672      9674      9672      9684
      9684      9685      9684      9686      9684      9687      9687      9688
      9687      9689      9687      9690      9690      9691      9690      9692
      9692      9693      9692      9694      9694      9695      9694      9696
      9694      9697      9697      9698      9697      9699      9699      9700
      9699      9701      9701      9702      9701      9703      9701      9704
      9704      9705      9704      9706      9706      9707      9706      9708
      9708      9709      9708      9710      9708      9711      9711      9712
      9711      9713      9713      9714      9713      9715      9715      9716
      9715      9717      9715      9718      9718      9719      9718      9720
      9718      9721      9721      9722      9721      9723      9721      9724
      9724      9725      9724      9726      9724      9727      9727      9728
      9727      9729      9727      9730      9678      9679      9679      9681
      9679      9680      9681      9682      9681      9683      9681      9731
      9731      9732      9731      9733      9731      9734      9734      9735
      9734      9736      9734      9737      9737      9738      9737      9739
      9737      9740      9740      9741      9740      9742      9740      9743
      9743      9744      9743      9745      9743      9746      9746      9747
      9746      9748      9746      9749      9749      9750      9749      9751
      9749      9752      9752      9753      9752      9754      9752      9755
      9755      9756      9755      9757      9755      9758      9758      9759
      9758      9760      9758      9761      9761      9762      9761      9763
      9761      9764      9764      9765      9764      9766      9764      9767
      9767      9768      9767      9769      9767      9770      9770      9771
      9770      9772      9770      9773      9773      9774      9773      9775
      9773      9776      9776      9777      9776      9778      9776      9779
      9780      9782      9780      9781      9782      9783      9780      9826
      9826      9827      9826      9828      9826      9823      9823      9824
      9823      9825      9780      9784      9784      9785      9784      9786
      9784      9787      9787      9818      9818      9823      9818      9819
      9819      9820      9819      9821      9819      9822      9787      9788
      9788      9789      9788      9790      9790      9791      9790      9792
      9790      9793      9793      9794      9793      9816      9816      9817
      9816      9818      9793      9795      9795      9796      9795      9805
      9805      9810      9810      9811      9810      9812      9810      9813
      9813      9814      9813      9815      9813      9816      9805      9806
      9806      9807      9806      9808      9806      9809      9795      9797
      9797      9798      9797      9799      9797      9800      9800      9801
      9800      9802      9800      9803      9803      9804      9803      9805
      9803      9829      9829      9830      9829      9831      9831      9832
      9831      9833      9831      9834      9829      9835      9835      9836
      9835      9837      9835      9838      9838      9839      9838      9840
      9838      9841      9841      9842      9841      9843      9841      9844
      9844      9845      9844      9846      9846      9847      9846      9848
      9846      9849      9844      9850      9850      9851      9850      9852
      9850      9853      9854      9858      9854      9862      9854      9866
      9858      9859      9858      9860      9858      9861      9862      9863
      9862      9864      9862      9865      9866      9867      9866      9868
      9866      9869      9854      9855      9855      9856      9855      9857
      9855      9870      9870      9871      9870      9872      9870      9876
      9877      9878      9876      9873      9873      9877      9873      9874
      9873      9875      9878      9879      9878      9880      9878      9881
      9881      9882      9881      9889      9881      9883      9889      9890
      9889      9891      9889      9892      9883      9884      9884      9886
      9884      9885      9886      9887      9886      9888      9886      9898
      9898      9899      9898      9900      9898      9901      9901      9902
      9901      9903      9901      9904      9904      9905      9904      9906
      9906      9907      9906      9908      9908      9909      9908      9910
      9908      9911      9911      9912      9911      9913      9913      9914
      9913      9915      9915      9916      9915      9917      9915      9918
      9918      9919      9918      9920      9920      9921      9920      9922
      9922      9923      9922      9924      9922      9925      9925      9926
      9925      9927      9927      9928      9927      9929      9929      9930
      9929      9931      9929      9932      9932      9933      9932      9934
      9932      9935      9935      9936      9935      9937      9935      9938
      9938      9939      9938      9940      9938      9941      9941      9942
      9941      9943      9941      9944      9892      9893      9893      9895
      9893      9894      9895      9896      9895      9897      9895      9945
      9945      9946      9945      9947      9945      9948      9948      9949
      9948      9950      9948      9951      9951      9952      9951      9953
      9951      9954      9954      9955      9954      9956      9954      9957
      9957      9958      9957      9959      9957      9960      9960      9961
      9960      9962      9960      9963      9963      9964      9963      9965
      9963      9966      9966      9967      9966      9968      9966      9969
      9969      9970      9969      9971      9969      9972      9972      9973
      9972      9974      9972      9975      9975      9976      9975      9977
      9975      9978      9978      9979      9978      9980      9978      9981
      9981      9982      9981      9983      9981      9984      9984      9985
      9984      9986      9984      9987      9987      9988      9987      9989
      9987      9990      9990      9991      9990      9992      9990      9993
      9994      9995      9994      9996      9994      9997      9994      9998
      9998      9999      9998     10000      9998     10001     10001     10002
     10001     10003     10001     10007     10009     10008     10007     10004
     10004     10008     10004     10005     10004     10006     10009     10010
     10009     10011     10009     10012     10012     10013     10012     10020
     10012     10014     10020     10021     10020     10022     10020     10023
     10014     10015     10015     10017     10015     10016     10017     10018
     10017     10019     10017     10029     10029     10030     10029     10031
     10029     10032     10032     10033     10032     10034     10032     10035
     10035     10036     10035     10037     10037     10038     10037     10039
     10039     10040     10039     10041     10039     10042     10042     10043
     10042     10044     10044     10045     10044     10046     10046     10047
     10046     10048     10046     10049     10049     10050     10049     10051
     10051     10052     10051     10053     10053     10054     10053     10055
     10053     10056     10056     10057     10056     10058     10058     10059
     10058     10060     10060     10061     10060     10062     10060     10063
     10063     10064     10063     10065     10063     10066     10066     10067
     10066     10068     10066     10069     10069     10070     10069     10071
     10069     10072     10072     10073     10072     10074     10072     10075
     10023     10024     10024     10026     10024     10025     10026     10027
     10026     10028     10026     10076     10076     10077     10076     10078
     10076     10079     10079     10080     10079     10081     10079     10082
     10082     10083     10082     10084     10082     10085     10085     10086
     10085     10087     10085     10088     10088     10089     10088     10090
     10088     10091     10091     10092     10091     10093     10091     10094
     10094     10095     10094     10096     10094     10097     10097     10098
     10097     10099     10097     10100     10100     10101     10100     10102
     10100     10103     10103     10104     10103     10105     10103     10106
     10106     10107     10106     10108     10106     10109     10109     10110
     10109     10111     10109     10112     10112     10113     10112     10114
     10112     10115     10115     10116     10115     10117     10115     10118
     10118     10119     10118     10120     10118     10121     10121     10122
     10121     10123     10121     10124     10125     10126     10125     10127
     10125     10128     10125     10129     10129     10130     10129     10131
     10129     10132     10132     10133     10132     10134     10132     10138
     10140     10139     10138     10135     10135     10139     10135     10136
     10135     10137     10140     10141     10140     10142     10140     10143
     10143     10144     10143     10151     10143     10145     10151     10152
     10151     10153     10151     10154     10145     10146     10146     10148
     10146     10147     10148     10149     10148     10150     10148     10160
     10160     10161     10160     10162     10160     10163     10163     10164
     10163     10165     10163     10166     10166     10167     10166     10168
     10168     10169     10168     10170     10170     10171     10170     10172
     10170     10173     10173     10174     10173     10175     10175     10176
     10175     10177     10177     10178     10177     10179     10177     10180
     10180     10181     10180     10182     10182     10183     10182     10184
     10184     10185     10184     10186     10184     10187     10187     10188
     10187     10189     10189     10190     10189     10191     10191     10192
     10191     10193     10191     10194     10194     10195     10194     10196
     10194     10197     10197     10198     10197     10199     10197     10200
     10200     10201     10200     10202     10200     10203     10203     10204
     10203     10205     10203     10206     10154     10155     10155     10157
     10155     10156     10157     10158     10157     10159     10157     10207
     10207     10208     10207     10209     10207     10210     10210     10211
     10210     10212     10210     10213     10213     10214     10213     10215
     10213     10216     10216     10217     10216     10218     10216     10219
     10219     10220     10219     10221     10219     10222     10222     10223
     10222     10224     10222     10225     10225     10226     10225     10227
     10225     10228     10228     10229     10228     10230     10228     10231
     10231     10232     10231     10233     10231     10234     10234     10235
     10234     10236     10234     10237     10237     10238     10237     10239
     10237     10240     10240     10241     10240     10242     10240     10243
     10243     10244     10243     10245     10243     10246     10246     10247
     10246     10248     10246     10249     10249     10250     10249     10251
     10249     10252     10252     10253     10252     10254     10252     10255
     10256     10257     10256     10258     10256     10259     10256     10260
     10260     10261     10260     10262     10260     10263     10263     10264
     10263     10265     10263     10269     10271     10270     10269     10266
     10266     10270     10266     10267     10266     10268     10271     10272
     10271     10273     10271     10274     10274     10275     10274     10282
     10274     10276     10282     10283     10282     10284     10282     10285
     10276     10277     10277     10279     10277     10278     10279     10280
     10279     10281     10279     10291     10291     10292     10291     10293
     10291     10294     10294     10295     10294     10296     10294     10297
     10297     10298     10297     10299     10299     10300     10299     10301
     10301     10302     10301     10303     10301     10304     10304     10305
     10304     10306     10306     10307     10306     10308     10308     10309
     10308     10310     10308     10311     10311     10312     10311     10313
     10313     10314     10313     10315     10315     10316     10315     10317
     10315     10318     10318     10319     10318     10320     10320     10321
     10320     10322     10322     10323     10322     10324     10322     10325
     10325     10326     10325     10327     10325     10328     10328     10329
     10328     10330     10328     10331     10331     10332     10331     10333
     10331     10334     10334     10335     10334     10336     10334     10337
     10285     10286     10286     10288     10286     10287     10288     10289
     10288     10290     10288     10338     10338     10339     10338     10340
     10338     10341     10341     10342     10341     10343     10341     10344
     10344     10345     10344     10346     10344     10347     10347     10348
     10347     10349     10347     10350     10350     10351     10350     10352
     10350     10353     10353     10354     10353     10355     10353     10356
     10356     10357     10356     10358     10356     10359     10359     10360
     10359     10361     10359     10362     10362     10363     10362     10364
     10362     10365     10365     10366     10365     10367     10365     10368
     10368     10369     10368     10370     10368     10371     10371     10372
     10371     10373     10371     10374     10374     10375     10374     10376
     10374     10377     10377     10378     10377     10379     10377     10380
     10380     10381     10380     10382     10380     10383     10383     10384
     10383     10385     10383     10386     10387     10388     10387     10389
     10387     10390     10387     10391     10395     10393     10393     10391
     10393     10394     10391     10392     10391     10396     10404     10403
     10396     10397     10396     10398     10396     10402     10402     10399
     10399     10403     10399     10400     10399     10401     10404     10405
     10404     10406     10404     10407     10407     10408     10407     10415
     10407     10409     10415     10416     10415     10417     10415     10418
     10409     10410     10410     10412     10410     10411     10412     10413
     10412     10414     10412     10424     10424     10425     10424     10426
     10424     10427     10427     10428     10427     10429     10427     10430
     10430     10431     10430     10432     10432     10433     10432     10434
     10434     10435     10434     10436     10434     10437     10437     10438
     10437     10439     10439     10440     10439     10441     10441     10442
     10441     10443     10441     10444     10444     10445     10444     10446
     10446     10447     10446     10448     10448     10449     10448     10450
     10448     10451     10451     10452     10451     10453     10453     10454
     10453     10455     10455     10456     10455     10457     10455     10458
     10458     10459     10458     10460     10458     10461     10461     10462
     10461     10463     10461     10464     10464     10465     10464     10466
     10464     10467     10467     10468     10467     10469     10467     10470
     10418     10419     10419     10421     10419     10420     10421     10422
     10421     10423     10421     10471     10471     10472     10471     10473
     10471     10474     10474     10475     10474     10476     10474     10477
     10477     10478     10477     10479     10477     10480     10480     10481
     10480     10482     10480     10483     10483     10484     10483     10485
     10483     10486     10486     10487     10486     10488     10486     10489
     10489     10490     10489     10491     10489     10492     10492     10493
     10492     10494     10492     10495     10495     10496     10495     10497
     10495     10498     10498     10499     10498     10500     10498     10501
     10501     10502     10501     10503     10501     10504     10504     10505
     10504     10506     10504     10507     10507     10508     10507     10509
     10507     10510     10510     10511     10510     10512     10510     10513
     10513     10514     10513     10515     10513     10516     10516     10517
     10516     10518     10516     10519     10520     10522     10520     10521
     10522     10523     10520     10566     10566     10567     10566     10568
     10566     10563     10563     10564     10563     10565     10520     10524
     10524     10525     10524     10526     10524     10527     10527     10558
     10558     10563     10558     10559     10559     10560     10559     10561
     10559     10562     10527     10528     10528     10529     10528     10530
     10530     10531     10530     10532     10530     10533     10533     10534
     10533     10556     10556     10557     10556     10558     10533     10535
     10535     10536     10535     10545     10545     10550     10550     10551
     10550     10552     10550     10553     10553     10554     10553     10555
     10553     10556     10545     10546     10546     10547     10546     10548
     10546     10549     10535     10537     10537     10538     10537     10539
     10537     10540     10540     10541     10540     10542     10540     10543
     10543     10544     10543     10545     10543     10569     10569     10570
     10569     10571     10571     10572     10571     10573     10571     10574
     10569     10575     10575     10576     10575     10577     10575     10578
     10578     10579     10578     10580     10578     10581     10581     10582
     10581     10583     10581     10584     10584     10585     10584     10586
     10586     10587     10586     10588     10586     10589     10584     10590
     10590     10591     10590     10592     10590     10593     10594     10595
     10594     10596     10594     10597     10594     10598     10598     10599
     10598     10600     10598     10601     10601     10602     10601     10603
     10601     10607     10609     10608     10607     10604     10604     10608
     10604     10605     10604     10606     10609     10610     10609     10611
     10609     10612     10612     10613     10612     10620     10612     10614
     10620     10621     10620     10622     10620     10623     10614     10615
     10615     10617     10615     10616     10617     10618     10617     10619
     10617     10629     10629     10630     10629     10631     10629     10632
     10632     10633     10632     10634     10632     10635     10635     10636
     10635     10637     10637     10638     10637     10639     10639     10640
     10639     10641     10639     10642     10642     10643     10642     10644
     10644     10645     10644     10646     10646     10647     10646     10648
     10646     10649     10649     10650     10649     10651     10651     10652
     10651     10653     10653     10654     10653     10655     10653     10656
     10656     10657     10656     10658     10658     10659     10658     10660
     10660     10661     10660     10662     10660     10663     10663     10664
     10663     10665     10663     10666     10666     10667     10666     10668
     10666     10669     10669     10670     10669     10671     10669     10672
     10672     10673     10672     10674     10672     10675     10623     10624
     10624     10626     10624     10625     10626     10627     10626     10628
     10626     10676     10676     10677     10676     10678     10676     10679
     10679     10680     10679     10681     10679     10682     10682     10683
     10682     10684     10682     10685     10685     10686     10685     10687
     10685     10688     10688     10689     10688     10690     10688     10691
     10691     10692     10691     10693     10691     10694     10694     10695
     10694     10696     10694     10697     10697     10698     10697     10699
     10697     10700     10700     10701     10700     10702     10700     10703
     10703     10704     10703     10705     10703     10706     10706     10707
     10706     10708     10706     10709     10709     10710     10709     10711
     10709     10712     10712     10713     10712     10714     10712     10715
     10715     10716     10715     10717     10715     10718     10718     10719
     10718     10720     10718     10721     10721     10722     10721     10723
     10721     10724     10725     10726     10725     10727     10725     10728
     10725     10729     10733     10731     10731     10729     10731     10732
     10729     10730     10729     10734     10742     10741     10734     10735
     10734     10736     10734     10740     10740     10737     10737     10741
     10737     10738     10737     10739     10742     10743     10742     10744
     10742     10745     10745     10746     10745     10753     10745     10747
     10753     10754     10753     10755     10753     10756     10747     10748
     10748     10750     10748     10749     10750     10751     10750     10752
     10750     10762     10762     10763     10762     10764     10762     10765
     10765     10766     10765     10767     10765     10768     10768     10769
     10768     10770     10770     10771     10770     10772     10772     10773
     10772     10774     10772     10775     10775     10776     10775     10777
     10777     10778     10777     10779     10779     10780     10779     10781
     10779     10782     10782     10783     10782     10784     10784     10785
     10784     10786     10786     10787     10786     10788     10786     10789
     10789     10790     10789     10791     10791     10792     10791     10793
     10793     10794     10793     10795     10793     10796     10796     10797
     10796     10798     10796     10799     10799     10800     10799     10801
     10799     10802     10802     10803     10802     10804     10802     10805
     10805     10806     10805     10807     10805     10808     10756     10757
     10757     10759     10757     10758     10759     10760     10759     10761
     10759     10809     10809     10810     10809     10811     10809     10812
     10812     10813     10812     10814     10812     10815     10815     10816
     10815     10817     10815     10818     10818     10819     10818     10820
     10818     10821     10821     10822     10821     10823     10821     10824
     10824     10825     10824     10826     10824     10827     10827     10828
     10827     10829     10827     10830     10830     10831     10830     10832
     10830     10833     10833     10834     10833     10835     10833     10836
     10836     10837     10836     10838     10836     10839     10839     10840
     10839     10841     10839     10842     10842     10843     10842     10844
     10842     10845     10845     10846     10845     10847     10845     10848
     10848     10849     10848     10850     10848     10851     10851     10852
     10851     10853     10851     10854     10854     10855     10854     10856
     10854     10857     10933     10934     10933     10935     10933     10936
     10933     10930     10930     10931     10930     10932     10930     10927
     10927     10928     10927     10929     10927     10924     10924     10925
     10924     10926     10924     10921     10921     10922     10921     10923
     10921     10918     10918     10919     10918     10920     10918     10915
     10915     10916     10915     10917     10915     10912     10912     10913
     10912     10914     10912     10909     10909     10910     10909     10911
     10909     10906     10906     10907     10906     10908     10906     10903
     10903     10904     10903     10905     10903     10900     10900     10901
     10900     10902     10900     10897     10897     10898     10897     10899
     10897     10895     10895     10896     10893     10894     10893     10889
     10889     10890     10889     10891     10891     10892     10889     10887
     10887     10888     10887     10882     10882     10883     10882     10884
     10882     10880     10880     10877     10881     10877     10878     10877
     10879     10877     10881     10874     10874     10875     10874     10876
     10874     10871     10871     10872     10871     10873     10871     10858
     10858     10867     10858     10863     10858     10859     10867     10868
     10867     10869     10867     10870     10863     10864     10863     10865
     10863     10866     10859     10860     10859     10861     10859     10862
     10887     10885     10885     10886     10885     10937     10937     10939
     10939     10940     10939     10941     10939     10942     10942     10943
     10942     10944     10942     10945     10945     10946     10945     10947
     10945     10948     10948     10949     10948     10950     10948     10951
     10951     10952     10951     10953     10951     10954     10954     10955
     10954     10956     10954     10957     10957     10958     10957     10959
     10957     10960     10960     10961     10962     10963     10962     10964
     10964     10965     10964     10966     10964     10967     10967     10968
     10967     10969     10967     10970     10970     10971     10970     10972
     10970     10973     10973     10974     10973     10975     10973     10976
     10976     10977     10976     10978     10976     10979     10979     10980
     10979     10981     10979     10982     10982     10983     10982     10984
     10982     10985     10985     10986     10985     10987     10985     10988
     10893     10895     10960     10962     10937     10938     10989     10990
     10989     10994     10989     10998     10990     10991     10990     10992
     10990     10993     10994     10995     10994     10996     10994     10997
     10998     10999     10998     11000     10998     11001     10989     11002
     11002     11003     11002     11004     11002     11005     11005     11006
     11005     11007     11005     11011     11012     11013     11011     11008
     11008     11012     11008     11009     11008     11010     11013     11014
     11013     11015     11013     11016     11016     11017     11016     11024
     11016     11018     11024     11025     11024     11026     11024     11027
     11018     11019     11019     11021     11019     11020     11021     11022
     11021     11023     11021     11033     11033     11034     11033     11035
     11033     11036     11036     11037     11036     11038     11036     11039
     11039     11040     11039     11041     11039     11042     11042     11043
     11042     11044     11042     11045     11045     11046     11045     11047
     11045     11048     11048     11049     11048     11050     11048     11051
     11051     11052     11051     11053     11053     11054     11053     11055
     11055     11056     11055     11057     11055     11058     11058     11059
     11058     11060     11060     11061     11060     11062     11062     11063
     11062     11064     11062     11065     11065     11066     11065     11067
     11065     11068     11068     11069     11068     11070     11068     11071
     11071     11072     11071     11073     11071     11074     11074     11075
     11074     11076     11074     11077     11027     11028     11028     11030
     11028     11029     11030     11031     11030     11032     11030     11078
     11078     11079     11078     11080     11078     11081     11081     11082
     11081     11083     11081     11084     11084     11085     11084     11086
     11084     11087     11087     11088     11087     11089     11087     11090
     11090     11091     11090     11092     11090     11093     11093     11094
     11093     11095     11093     11096     11096     11097     11096     11098
     11096     11099     11099     11100     11099     11101     11099     11102
     11102     11103     11102     11104     11102     11105     11105     11106
     11105     11107     11105     11108     11108     11109     11108     11110
     11108     11111     11111     11112     11111     11113     11111     11114
     11114     11115     11114     11116     11114     11117     11117     11118
     11117     11119     11117     11120     11120     11121     11120     11122
     11120     11123     11123     11124     11123     11125     11123     11126
     11127     11128     11127     11129     11127     11130     11127     11131
     11135     11133     11133     11131     11133     11134     11131     11132
     11131     11136     11144     11143     11136     11137     11136     11138
     11136     11142     11142     11139     11139     11143     11139     11140
     11139     11141     11144     11145     11144     11146     11144     11147
     11147     11148     11147     11155     11147     11149     11155     11156
     11155     11157     11155     11158     11149     11150     11150     11152
     11150     11151     11152     11153     11152     11154     11152     11164
     11164     11165     11164     11166     11164     11167     11167     11168
     11167     11169     11167     11170     11170     11171     11170     11172
     11172     11173     11172     11174     11174     11175     11174     11176
     11174     11177     11177     11178     11177     11179     11179     11180
     11179     11181     11181     11182     11181     11183     11181     11184
     11184     11185     11184     11186     11186     11187     11186     11188
     11188     11189     11188     11190     11188     11191     11191     11192
     11191     11193     11193     11194     11193     11195     11195     11196
     11195     11197     11195     11198     11198     11199     11198     11200
     11198     11201     11201     11202     11201     11203     11201     11204
     11204     11205     11204     11206     11204     11207     11207     11208
     11207     11209     11207     11210     11158     11159     11159     11161
     11159     11160     11161     11162     11161     11163     11161     11211
     11211     11212     11211     11213     11211     11214     11214     11215
     11214     11216     11214     11217     11217     11218     11217     11219
     11217     11220     11220     11221     11220     11222     11220     11223
     11223     11224     11223     11225     11223     11226     11226     11227
     11226     11228     11226     11229     11229     11230     11229     11231
     11229     11232     11232     11233     11232     11234     11232     11235
     11235     11236     11235     11237     11235     11238     11238     11239
     11238     11240     11238     11241     11241     11242     11241     11243
     11241     11244     11244     11245     11244     11246     11244     11247
     11247     11248     11247     11249     11247     11250     11250     11251
     11250     11252     11250     11253     11253     11254     11253     11255
     11253     11256     11256     11257     11256     11258     11256     11259
     11260     11261     11260     11262     11260     11263     11260     11264
     11264     11265     11264     11266     11264     11267     11267     11268
     11267     11269     11267     11273     11275     11274     11273     11270
     11270     11274     11270     11271     11270     11272     11275     11276
     11275     11277     11275     11278     11278     11279     11278     11286
     11278     11280     11286     11287     11286     11288     11286     11289
     11280     11281     11281     11283     11281     11282     11283     11284
     11283     11285     11283     11295     11295     11296     11295     11297
     11295     11298     11298     11299     11298     11300     11298     11301
     11301     11302     11301     11303     11301     11304     11304     11305
     11304     11306     11304     11307     11307     11308     11307     11309
     11307     11310     11310     11311     11310     11312     11310     11313
     11313     11314     11313     11315     11315     11316     11315     11317
     11317     11318     11317     11319     11317     11320     11320     11321
     11320     11322     11320     11323     11323     11324     11323     11325
     11323     11326     11326     11327     11326     11328     11326     11329
     11329     11330     11329     11331     11329     11332     11332     11333
     11332     11334     11332     11335     11335     11336     11335     11337
     11335     11338     11338     11339     11338     11340     11338     11341
     11289     11290     11290     11292     11290     11291     11292     11293
     11292     11294     11292     11342     11342     11343     11342     11344
     11342     11345     11345     11346     11345     11347     11345     11348
     11348     11349     11348     11350     11348     11351     11351     11352
     11351     11353     11351     11354     11354     11355     11354     11356
     11354     11357     11357     11358     11357     11359     11357     11360
     11360     11361     11360     11362     11360     11363     11363     11364
     11363     11365     11363     11366     11366     11367     11366     11368
     11366     11369     11369     11370     11369     11371     11369     11372
     11372     11373     11372     11374     11372     11375     11375     11376
     11375     11377     11375     11378     11378     11379     11378     11380
     11378     11381     11381     11382     11381     11383     11381     11384
     11384     11385     11384     11386     11384     11387     11387     11388
     11387     11389     11387     11390     11391     11395     11391     11399
     11391     11403     11395     11396     11395     11397     11395     11398
     11399     11400     11399     11401     11399     11402     11403     11404
     11403     11405     11403     11406     11391     11392     11392     11393
     11392     11394     11392     11407     11407     11408     11407     11409
     11407     11413     11414     11415     11413     11410     11410     11414
     11410     11411     11410     11412     11415     11416     11415     11417
     11415     11418     11418     11419     11418     11426     11418     11420
     11426     11427     11426     11428     11426     11429     11420     11421
     11421     11423     11421     11422     11423     11424     11423     11425
     11423     11435     11435     11436     11435     11437     11435     11438
     11438     11439     11438     11440     11438     11441     11441     11442
     11441     11443     11443     11444     11443     11445     11445     11446
     11445     11447     11445     11448     11448     11449     11448     11450
     11450     11451     11450     11452     11452     11453     11452     11454
     11452     11455     11455     11456     11455     11457     11457     11458
     11457     11459     11459     11460     11459     11461     11459     11462
     11462     11463     11462     11464     11464     11465     11464     11466
     11466     11467     11466     11468     11466     11469     11469     11470
     11469     11471     11469     11472     11472     11473     11472     11474
     11472     11475     11475     11476     11475     11477     11475     11478
     11478     11479     11478     11480     11478     11481     11429     11430
     11430     11432     11430     11431     11432     11433     11432     11434
     11432     11482     11482     11483     11482     11484     11482     11485
     11485     11486     11485     11487     11485     11488     11488     11489
     11488     11490     11488     11491     11491     11492     11491     11493
     11491     11494     11494     11495     11494     11496     11494     11497
     11497     11498     11497     11499     11497     11500     11500     11501
     11500     11502     11500     11503     11503     11504     11503     11505
     11503     11506     11506     11507     11506     11508     11506     11509
     11509     11510     11509     11511     11509     11512     11512     11513
     11512     11514     11512     11515     11515     11516     11515     11517
     11515     11518     11518     11519     11518     11520     11518     11521
     11521     11522     11521     11523     11521     11524     11524     11525
     11524     11526     11524     11527     11527     11528     11527     11529
     11527     11530     11531     11532     11531     11533     11531     11534
     11531     11535     11535     11536     11535     11537     11535     11538
     11538     11539     11538     11540     11538     11544     11546     11545
     11544     11541     11541     11545     11541     11542     11541     11543
     11546     11547     11546     11548     11546     11549     11549     11550
     11549     11557     11549     11551     11557     11558     11557     11559
     11557     11560     11551     11552     11552     11554     11552     11553
     11554     11555     11554     11556     11554     11566     11566     11567
     11566     11568     11566     11569     11569     11570     11569     11571
     11569     11572     11572     11573     11572     11574     11574     11575
     11574     11576     11576     11577     11576     11578     11576     11579
     11579     11580     11579     11581     11581     11582     11581     11583
     11583     11584     11583     11585     11583     11586     11586     11587
     11586     11588     11588     11589     11588     11590     11590     11591
     11590     11592     11590     11593     11593     11594     11593     11595
     11595     11596     11595     11597     11597     11598     11597     11599
     11597     11600     11600     11601     11600     11602     11600     11603
     11603     11604     11603     11605     11603     11606     11606     11607
     11606     11608     11606     11609     11609     11610     11609     11611
     11609     11612     11560     11561     11561     11563     11561     11562
     11563     11564     11563     11565     11563     11613     11613     11614
     11613     11615     11613     11616     11616     11617     11616     11618
     11616     11619     11619     11620     11619     11621     11619     11622
     11622     11623     11622     11624     11622     11625     11625     11626
     11625     11627     11625     11628     11628     11629     11628     11630
     11628     11631     11631     11632     11631     11633     11631     11634
     11634     11635     11634     11636     11634     11637     11637     11638
     11637     11639     11637     11640     11640     11641     11640     11642
     11640     11643     11643     11644     11643     11645     11643     11646
     11646     11647     11646     11648     11646     11649     11649     11650
     11649     11651     11649     11652     11652     11653     11652     11654
     11652     11655     11655     11656     11655     11657     11655     11658
     11658     11659     11658     11660     11658     11661     11737     11738
     11737     11739     11737     11740     11737     11734     11734     11735
     11734     11736     11734     11731     11731     11732     11731     11733
     11731     11728     11728     11729     11728     11730     11728     11725
     11725     11726     11725     11727     11725     11722     11722     11723
     11722     11724     11722     11719     11719     11720     11719     11721
     11719     11716     11716     11717     11716     11718     11716     11713
     11713     11714     11713     11715     11713     11710     11710     11711
     11710     11712     11710     11707     11707     11708     11707     11709
     11707     11704     11704     11705     11704     11706     11704     11701
     11701     11702     11701     11703     11701     11699     11699     11700
     11697     11698     11697     11693     11693     11694     11693     11695
     11695     11696     11693     11691     11691     11692     11691     11686
     11686     11687     11686     11688     11686     11684     11684     11681
     11685     11681     11682     11681     11683     11681     11685     11678
     11678     11679     11678     11680     11678     11675     11675     11676
     11675     11677     11675     11662     11662     11671     11662     11667
     11662     11663     11671     11672     11671     11673     11671     11674
     11667     11668     11667     11669     11667     11670     11663     11664
     11663     11665     11663     11666     11691     11689     11689     11690
     11689     11741     11741     11743     11743     11744     11743     11745
     11743     11746     11746     11747     11746     11748     11746     11749
     11749     11750     11749     11751     11749     11752     11752     11753
     11752     11754     11752     11755     11755     11756     11755     11757
     11755     11758     11758     11759     11758     11760     11758     11761
     11761     11762     11761     11763     11761     11764     11764     11765
     11766     11767     11766     11768     11768     11769     11768     11770
     11768     11771     11771     11772     11771     11773     11771     11774
     11774     11775     11774     11776     11774     11777     11777     11778
     11777     11779     11777     11780     11780     11781     11780     11782
     11780     11783     11783     11784     11783     11785     11783     11786
     11786     11787     11786     11788     11786     11789     11789     11790
     11789     11791     11789     11792     11697     11699     11764     11766
     11741     11742     11793     11794     11793     11795     11793     11796
     11793     11797     11801     11799     11799     11797     11799     11800
     11797     11798     11797     11802     11810     11809     11802     11803
     11802     11804     11802     11808     11808     11805     11805     11809
     11805     11806     11805     11807     11810     11811     11810     11812
     11810     11813     11813     11814     11813     11821     11813     11815
     11821     11822     11821     11823     11821     11824     11815     11816
     11816     11818     11816     11817     11818     11819     11818     11820
     11818     11830     11830     11831     11830     11832     11830     11833
     11833     11834     11833     11835     11833     11836     11836     11837
     11836     11838     11838     11839     11838     11840     11840     11841
     11840     11842     11840     11843     11843     11844     11843     11845
     11845     11846     11845     11847     11847     11848     11847     11849
     11847     11850     11850     11851     11850     11852     11852     11853
     11852     11854     11854     11855     11854     11856     11854     11857
     11857     11858     11857     11859     11859     11860     11859     11861
     11861     11862     11861     11863     11861     11864     11864     11865
     11864     11866     11864     11867     11867     11868     11867     11869
     11867     11870     11870     11871     11870     11872     11870     11873
     11873     11874     11873     11875     11873     11876     11824     11825
     11825     11827     11825     11826     11827     11828     11827     11829
     11827     11877     11877     11878     11877     11879     11877     11880
     11880     11881     11880     11882     11880     11883     11883     11884
     11883     11885     11883     11886     11886     11887     11886     11888
     11886     11889     11889     11890     11889     11891     11889     11892
     11892     11893     11892     11894     11892     11895     11895     11896
     11895     11897     11895     11898     11898     11899     11898     11900
     11898     11901     11901     11902     11901     11903     11901     11904
     11904     11905     11904     11906     11904     11907     11907     11908
     11907     11909     11907     11910     11910     11911     11910     11912
     11910     11913     11913     11914     11913     11915     11913     11916
     11916     11917     11916     11918     11916     11919     11919     11920
     11919     11921     11919     11922     11922     11923     11922     11924
     11922     11925     11926     11930     11926     11934     11926     11938
     11930     11931     11930     11932     11930     11933     11934     11935
     11934     11936     11934     11937     11938     11939     11938     11940
     11938     11941     11926     11927     11927     11928     11927     11929
     11927     11942     11942     11943     11942     11944     11942     11948
     11949     11950     11948     11945     11945     11949     11945     11946
     11945     11947     11950     11951     11950     11952     11950     11953
     11953     11954     11953     11961     11953     11955     11961     11962
     11961     11963     11961     11964     11955     11956     11956     11958
     11956     11957     11958     11959     11958     11960     11958     11970
     11970     11971     11970     11972     11970     11973     11973     11974
     11973     11975     11973     11976     11976     11977     11976     11978
     11976     11979     11979     11980     11979     11981     11979     11982
     11982     11983     11982     11984     11982     11985     11985     11986
     11985     11987     11985     11988     11988     11989     11988     11990
     11990     11991     11990     11992     11992     11993     11992     11994
     11992     11995     11995     11996     11995     11997     11995     11998
     11998     11999     11998     12000     11998     12001     12001     12002
     12001     12003     12001     12004     12004     12005     12004     12006
     12004     12007     12007     12008     12007     12009     12007     12010
     12010     12011     12010     12012     12010     12013     12013     12014
     12013     12015     12013     12016     11964     11965     11965     11967
     11965     11966     11967     11968     11967     11969     11967     12017
     12017     12018     12017     12019     12017     12020     12020     12021
     12020     12022     12020     12023     12023     12024     12023     12025
     12023     12026     12026     12027     12026     12028     12026     12029
     12029     12030     12029     12031     12029     12032     12032     12033
     12032     12034     12032     12035     12035     12036     12035     12037
     12035     12038     12038     12039     12038     12040     12038     12041
     12041     12042     12041     12043     12041     12044     12044     12045
     12044     12046     12044     12047     12047     12048     12047     12049
     12047     12050     12050     12051     12050     12052     12050     12053
     12053     12054     12053     12055     12053     12056     12056     12057
     12056     12058     12056     12059     12060     12061     12060     12062
     12060     12063     12060     12064     12064     12065     12064     12066
     12064     12067     12067     12068     12067     12069     12067     12073
     12075     12074     12073     12070     12070     12074     12070     12071
     12070     12072     12075     12076     12075     12077     12075     12078
     12078     12079     12078     12086     12078     12080     12086     12087
     12086     12088     12086     12089     12080     12081     12081     12083
     12081     12082     12083     12084     12083     12085     12083     12095
     12095     12096     12095     12097     12095     12098     12098     12099
     12098     12100     12098     12101     12101     12102     12101     12103
     12103     12104     12103     12105     12105     12106     12105     12107
     12105     12108     12108     12109     12108     12110     12110     12111
     12110     12112     12112     12113     12112     12114     12112     12115
     12115     12116     12115     12117     12117     12118     12117     12119
     12119     12120     12119     12121     12119     12122     12122     12123
     12122     12124     12124     12125     12124     12126     12126     12127
     12126     12128     12126     12129     12129     12130     12129     12131
     12129     12132     12132     12133     12132     12134     12132     12135
     12135     12136     12135     12137     12135     12138     12138     12139
     12138     12140     12138     12141     12089     12090     12090     12092
     12090     12091     12092     12093     12092     12094     12092     12142
     12142     12143     12142     12144     12142     12145     12145     12146
     12145     12147     12145     12148     12148     12149     12148     12150
     12148     12151     12151     12152     12151     12153     12151     12154
     12154     12155     12154     12156     12154     12157     12157     12158
     12157     12159     12157     12160     12160     12161     12160     12162
     12160     12163     12163     12164     12163     12165     12163     12166
     12166     12167     12166     12168     12166     12169     12169     12170
     12169     12171     12169     12172     12172     12173     12172     12174
     12172     12175     12175     12176     12175     12177     12175     12178
     12178     12179     12178     12180     12178     12181     12181     12182
     12181     12183     12181     12184     12184     12185     12184     12186
     12184     12187     12187     12188     12187     12189     12187     12190
     12191     12192     12191     12193     12191     12194     12191     12195
     12199     12197     12197     12195     12197     12198     12195     12196
     12195     12200     12208     12207     12200     12201     12200     12202
     12200     12206     12206     12203     12203     12207     12203     12204
     12203     12205     12208     12209     12208     12210     12208     12211
     12211     12212     12211     12219     12211     12213     12219     12220
     12219     12221     12219     12222     12213     12214     12214     12216
     12214     12215     12216     12217     12216     12218     12216     12228
     12228     12229     12228     12230     12228     12231     12231     12232
     12231     12233     12231     12234     12234     12235     12234     12236
     12236     12237     12236     12238     12238     12239     12238     12240
     12238     12241     12241     12242     12241     12243     12243     12244
     12243     12245     12245     12246     12245     12247     12245     12248
     12248     12249     12248     12250     12250     12251     12250     12252
     12252     12253     12252     12254     12252     12255     12255     12256
     12255     12257     12257     12258     12257     12259     12259     12260
     12259     12261     12259     12262     12262     12263     12262     12264
     12262     12265     12265     12266     12265     12267     12265     12268
     12268     12269     12268     12270     12268     12271     12271     12272
     12271     12273     12271     12274     12222     12223     12223     12225
     12223     12224     12225     12226     12225     12227     12225     12275
     12275     12276     12275     12277     12275     12278     12278     12279
     12278     12280     12278     12281     12281     12282     12281     12283
     12281     12284     12284     12285     12284     12286     12284     12287
     12287     12288     12287     12289     12287     12290     12290     12291
     12290     12292     12290     12293     12293     12294     12293     12295
     12293     12296     12296     12297     12296     12298     12296     12299
     12299     12300     12299     12301     12299     12302     12302     12303
     12302     12304     12302     12305     12305     12306     12305     12307
     12305     12308     12308     12309     12308     12310     12308     12311
     12311     12312     12311     12313     12311     12314     12314     12315
     12314     12316     12314     12317     12317     12318     12317     12319
     12317     12320     12320     12321     12320     12322     12320     12323
     12324     12326     12324     12325     12326     12327     12324     12370
     12370     12371     12370     12372     12370     12367     12367     12368
     12367     12369     12324     12328     12328     12329     12328     12330
     12328     12331     12331     12362     12362     12367     12362     12363
     12363     12364     12363     12365     12363     12366     12331     12332
     12332     12333     12332     12334     12334     12335     12334     12336
     12334     12337     12337     12338     12337     12360     12360     12361
     12360     12362     12337     12339     12339     12340     12339     12349
     12349     12354     12354     12355     12354     12356     12354     12357
     12357     12358     12357     12359     12357     12360     12349     12350
     12350     12351     12350     12352     12350     12353     12339     12341
     12341     12342     12341     12343     12341     12344     12344     12345
     12344     12346     12344     12347     12347     12348     12347     12349
     12347     12373     12373     12374     12373     12375     12375     12376
     12375     12377     12375     12378     12373     12379     12379     12380
     12379     12381     12379     12382     12382     12383     12382     12384
     12382     12385     12385     12386     12385     12387     12385     12388
     12388     12389     12388     12390     12390     12391     12390     12392
     12390     12393     12388     12394     12394     12395     12394     12396
     12394     12397     12398     12400     12398     12399     12400     12401
     12398     12444     12444     12445     12444     12446     12444     12441
     12441     12442     12441     12443     12398     12402     12402     12403
     12402     12404     12402     12405     12405     12436     12436     12441
     12436     12437     12437     12438     12437     12439     12437     12440
     12405     12406     12406     12407     12406     12408     12408     12409
     12408     12410     12408     12411     12411     12412     12411     12434
     12434     12435     12434     12436     12411     12413     12413     12414
     12413     12423     12423     12428     12428     12429     12428     12430
     12428     12431     12431     12432     12431     12433     12431     12434
     12423     12424     12424     12425     12424     12426     12424     12427
     12413     12415     12415     12416     12415     12417     12415     12418
     12418     12419     12418     12420     12418     12421     12421     12422
     12421     12423     12421     12447     12447     12448     12447     12449
     12449     12450     12449     12451     12449     12452     12447     12453
     12453     12454     12453     12455     12453     12456     12456     12457
     12456     12458     12456     12459     12459     12460     12459     12461
     12459     12462     12462     12463     12462     12464     12464     12465
     12464     12466     12464     12467     12462     12468     12468     12469
     12468     12470     12468     12471     12472     12473     12472     12474
     12472     12475     12472     12476     12480     12478     12478     12476
     12478     12479     12476     12477     12476     12481     12489     12488
     12481     12482     12481     12483     12481     12487     12487     12484
     12484     12488     12484     12485     12484     12486     12489     12490
     12489     12491     12489     12492     12492     12493     12492     12500
     12492     12494     12500     12501     12500     12502     12500     12503
     12494     12495     12495     12497     12495     12496     12497     12498
     12497     12499     12497     12509     12509     12510     12509     12511
     12509     12512     12512     12513     12512     12514     12512     12515
     12515     12516     12515     12517     12517     12518     12517     12519
     12519     12520     12519     12521     12519     12522     12522     12523
     12522     12524     12524     12525     12524     12526     12526     12527
     12526     12528     12526     12529     12529     12530     12529     12531
     12531     12532     12531     12533     12533     12534     12533     12535
     12533     12536     12536     12537     12536     12538     12538     12539
     12538     12540     12540     12541     12540     12542     12540     12543
     12543     12544     12543     12545     12543     12546     12546     12547
     12546     12548     12546     12549     12549     12550     12549     12551
     12549     12552     12552     12553     12552     12554     12552     12555
     12503     12504     12504     12506     12504     12505     12506     12507
     12506     12508     12506     12556     12556     12557     12556     12558
     12556     12559     12559     12560     12559     12561     12559     12562
     12562     12563     12562     12564     12562     12565     12565     12566
     12565     12567     12565     12568     12568     12569     12568     12570
     12568     12571     12571     12572     12571     12573     12571     12574
     12574     12575     12574     12576     12574     12577     12577     12578
     12577     12579     12577     12580     12580     12581     12580     12582
     12580     12583     12583     12584     12583     12585     12583     12586
     12586     12587     12586     12588     12586     12589     12589     12590
     12589     12591     12589     12592     12592     12593     12592     12594
     12592     12595     12595     12596     12595     12597     12595     12598
     12598     12599     12598     12600     12598     12601     12601     12602
     12601     12603     12601     12604     12605     12606     12605     12607
     12605     12608     12605     12609     12609     12610     12609     12611
     12609     12612     12612     12613     12612     12614     12612     12618
     12620     12619     12618     12615     12615     12619     12615     12616
     12615     12617     12620     12621     12620     12622     12620     12623
     12623     12624     12623     12631     12623     12625     12631     12632
     12631     12633     12631     12634     12625     12626     12626     12628
     12626     12627     12628     12629     12628     12630     12628     12640
     12640     12641     12640     12642     12640     12643     12643     12644
     12643     12645     12643     12646     12646     12647     12646     12648
     12648     12649     12648     12650     12650     12651     12650     12652
     12650     12653     12653     12654     12653     12655     12655     12656
     12655     12657     12657     12658     12657     12659     12657     12660
     12660     12661     12660     12662     12662     12663     12662     12664
     12664     12665     12664     12666     12664     12667     12667     12668
     12667     12669     12669     12670     12669     12671     12671     12672
     12671     12673     12671     12674     12674     12675     12674     12676
     12674     12677     12677     12678     12677     12679     12677     12680
     12680     12681     12680     12682     12680     12683     12683     12684
     12683     12685     12683     12686     12634     12635     12635     12637
     12635     12636     12637     12638     12637     12639     12637     12687
     12687     12688     12687     12689     12687     12690     12690     12691
     12690     12692     12690     12693     12693     12694     12693     12695
     12693     12696     12696     12697     12696     12698     12696     12699
     12699     12700     12699     12701     12699     12702     12702     12703
     12702     12704     12702     12705     12705     12706     12705     12707
     12705     12708     12708     12709     12708     12710     12708     12711
     12711     12712     12711     12713     12711     12714     12714     12715
     12714     12716     12714     12717     12717     12718     12717     12719
     12717     12720     12720     12721     12720     12722     12720     12723
     12723     12724     12723     12725     12723     12726     12726     12727
     12726     12728     12726     12729     12729     12730     12729     12731
     12729     12732     12732     12733     12732     12734     12732     12735
     12736     12738     12736     12737     12738     12739     12736     12782
     12782     12783     12782     12784     12782     12779     12779     12780
     12779     12781     12736     12740     12740     12741     12740     12742
     12740     12743     12743     12774     12774     12779     12774     12775
     12775     12776     12775     12777     12775     12778     12743     12744
     12744     12745     12744     12746     12746     12747     12746     12748
     12746     12749     12749     12750     12749     12772     12772     12773
     12772     12774     12749     12751     12751     12752     12751     12761
     12761     12766     12766     12767     12766     12768     12766     12769
     12769     12770     12769     12771     12769     12772     12761     12762
     12762     12763     12762     12764     12762     12765     12751     12753
     12753     12754     12753     12755     12753     12756     12756     12757
     12756     12758     12756     12759     12759     12760     12759     12761
     12759     12785     12785     12786     12785     12787     12787     12788
     12787     12789     12787     12790     12785     12791     12791     12792
     12791     12793     12791     12794     12794     12795     12794     12796
     12794     12797     12797     12798     12797     12799     12797     12800
     12800     12801     12800     12802     12802     12803     12802     12804
     12802     12805     12800     12806     12806     12807     12806     12808
     12806     12809     12810     12812     12810     12811     12812     12813
     12810     12856     12856     12857     12856     12858     12856     12853
     12853     12854     12853     12855     12810     12814     12814     12815
     12814     12816     12814     12817     12817     12848     12848     12853
     12848     12849     12849     12850     12849     12851     12849     12852
     12817     12818     12818     12819     12818     12820     12820     12821
     12820     12822     12820     12823     12823     12824     12823     12846
     12846     12847     12846     12848     12823     12825     12825     12826
     12825     12835     12835     12840     12840     12841     12840     12842
     12840     12843     12843     12844     12843     12845     12843     12846
     12835     12836     12836     12837     12836     12838     12836     12839
     12825     12827     12827     12828     12827     12829     12827     12830
     12830     12831     12830     12832     12830     12833     12833     12834
     12833     12835     12833     12859     12859     12860     12859     12861
     12861     12862     12861     12863     12861     12864     12859     12865
     12865     12866     12865     12867     12865     12868     12868     12869
     12868     12870     12868     12871     12871     12872     12871     12873
     12871     12874     12874     12875     12874     12876     12876     12877
     12876     12878     12876     12879     12874     12880     12880     12881
     12880     12882     12880     12883     12884     12886     12884     12885
     12886     12887     12884     12930     12930     12931     12930     12932
     12930     12927     12927     12928     12927     12929     12884     12888
     12888     12889     12888     12890     12888     12891     12891     12922
     12922     12927     12922     12923     12923     12924     12923     12925
     12923     12926     12891     12892     12892     12893     12892     12894
     12894     12895     12894     12896     12894     12897     12897     12898
     12897     12920     12920     12921     12920     12922     12897     12899
     12899     12900     12899     12909     12909     12914     12914     12915
     12914     12916     12914     12917     12917     12918     12917     12919
     12917     12920     12909     12910     12910     12911     12910     12912
     12910     12913     12899     12901     12901     12902     12901     12903
     12901     12904     12904     12905     12904     12906     12904     12907
     12907     12908     12907     12909     12907     12933     12933     12934
     12933     12935     12935     12936     12935     12937     12935     12938
     12933     12939     12939     12940     12939     12941     12939     12942
     12942     12943     12942     12944     12942     12945     12945     12946
     12945     12947     12945     12948     12948     12949     12948     12950
     12950     12951     12950     12952     12950     12953     12948     12954
     12954     12955     12954     12956     12954     12957     12958     12960
     12958     12959     12960     12961     12958     13004     13004     13005
     13004     13006     13004     13001     13001     13002     13001     13003
     12958     12962     12962     12963     12962     12964     12962     12965
     12965     12996     12996     13001     12996     12997     12997     12998
     12997     12999     12997     13000     12965     12966     12966     12967
     12966     12968     12968     12969     12968     12970     12968     12971
     12971     12972     12971     12994     12994     12995     12994     12996
     12971     12973     12973     12974     12973     12983     12983     12988
     12988     12989     12988     12990     12988     12991     12991     12992
     12991     12993     12991     12994     12983     12984     12984     12985
     12984     12986     12984     12987     12973     12975     12975     12976
     12975     12977     12975     12978     12978     12979     12978     12980
     12978     12981     12981     12982     12981     12983     12981     13007
     13007     13008     13007     13009     13009     13010     13009     13011
     13009     13012     13007     13013     13013     13014     13013     13015
     13013     13016     13016     13017     13016     13018     13016     13019
     13019     13020     13019     13021     13019     13022     13022     13023
     13022     13024     13024     13025     13024     13026     13024     13027
     13022     13028     13028     13029     13028     13030     13028     13031
     13032     13033     13032     13034     13032     13035     13032     13036
     13036     13037     13036     13038     13036     13039     13039     13040
     13039     13041     13039     13045     13047     13046     13045     13042
     13042     13046     13042     13043     13042     13044     13047     13048
     13047     13049     13047     13050     13050     13051     13050     13058
     13050     13052     13058     13059     13058     13060     13058     13061
     13052     13053     13053     13055     13053     13054     13055     13056
     13055     13057     13055     13067     13067     13068     13067     13069
     13067     13070     13070     13071     13070     13072     13070     13073
     13073     13074     13073     13075     13075     13076     13075     13077
     13077     13078     13077     13079     13077     13080     13080     13081
     13080     13082     13082     13083     13082     13084     13084     13085
     13084     13086     13084     13087     13087     13088     13087     13089
     13089     13090     13089     13091     13091     13092     13091     13093
     13091     13094     13094     13095     13094     13096     13096     13097
     13096     13098     13098     13099     13098     13100     13098     13101
     13101     13102     13101     13103     13101     13104     13104     13105
     13104     13106     13104     13107     13107     13108     13107     13109
     13107     13110     13110     13111     13110     13112     13110     13113
     13061     13062     13062     13064     13062     13063     13064     13065
     13064     13066     13064     13114     13114     13115     13114     13116
     13114     13117     13117     13118     13117     13119     13117     13120
     13120     13121     13120     13122     13120     13123     13123     13124
     13123     13125     13123     13126     13126     13127     13126     13128
     13126     13129     13129     13130     13129     13131     13129     13132
     13132     13133     13132     13134     13132     13135     13135     13136
     13135     13137     13135     13138     13138     13139     13138     13140
     13138     13141     13141     13142     13141     13143     13141     13144
     13144     13145     13144     13146     13144     13147     13147     13148
     13147     13149     13147     13150     13150     13151     13150     13152
     13150     13153     13153     13154     13153     13155     13153     13156
     13156     13157     13156     13158     13156     13159     13159     13160
     13159     13161     13159     13162     13238     13239     13238     13240
     13238     13241     13238     13235     13235     13236     13235     13237
     13235     13232     13232     13233     13232     13234     13232     13229
     13229     13230     13229     13231     13229     13226     13226     13227
     13226     13228     13226     13223     13223     13224     13223     13225
     13223     13220     13220     13221     13220     13222     13220     13217
     13217     13218     13217     13219     13217     13214     13214     13215
     13214     13216     13214     13211     13211     13212     13211     13213
     13211     13208     13208     13209     13208     13210     13208     13205
     13205     13206     13205     13207     13205     13202     13202     13203
     13202     13204     13202     13200     13200     13201     13198     13199
     13198     13194     13194     13195     13194     13196     13196     13197
     13194     13192     13192     13193     13192     13187     13187     13188
     13187     13189     13187     13185     13185     13182     13186     13182
     13183     13182     13184     13182     13186     13179     13179     13180
     13179     13181     13179     13176     13176     13177     13176     13178
     13176     13163     13163     13172     13163     13168     13163     13164
     13172     13173     13172     13174     13172     13175     13168     13169
     13168     13170     13168     13171     13164     13165     13164     13166
     13164     13167     13192     13190     13190     13191     13190     13242
     13242     13244     13244     13245     13244     13246     13244     13247
     13247     13248     13247     13249     13247     13250     13250     13251
     13250     13252     13250     13253     13253     13254     13253     13255
     13253     13256     13256     13257     13256     13258     13256     13259
     13259     13260     13259     13261     13259     13262     13262     13263
     13262     13264     13262     13265     13265     13266     13267     13268
     13267     13269     13269     13270     13269     13271     13269     13272
     13272     13273     13272     13274     13272     13275     13275     13276
     13275     13277     13275     13278     13278     13279     13278     13280
     13278     13281     13281     13282     13281     13283     13281     13284
     13284     13285     13284     13286     13284     13287     13287     13288
     13287     13289     13287     13290     13290     13291     13290     13292
     13290     13293     13198     13200     13265     13267     13242     13243
     13369     13370     13369     13371     13369     13372     13369     13366
     13366     13367     13366     13368     13366     13363     13363     13364
     13363     13365     13363     13360     13360     13361     13360     13362
     13360     13357     13357     13358     13357     13359     13357     13354
     13354     13355     13354     13356     13354     13351     13351     13352
     13351     13353     13351     13348     13348     13349     13348     13350
     13348     13345     13345     13346     13345     13347     13345     13342
     13342     13343     13342     13344     13342     13339     13339     13340
     13339     13341     13339     13336     13336     13337     13336     13338
     13336     13333     13333     13334     13333     13335     13333     13331
     13331     13332     13329     13330     13329     13325     13325     13326
     13325     13327     13327     13328     13325     13323     13323     13324
     13323     13318     13318     13319     13318     13320     13318     13316
     13316     13313     13317     13313     13314     13313     13315     13313
     13317     13310     13310     13311     13310     13312     13310     13307
     13307     13308     13307     13309     13307     13294     13294     13303
     13294     13299     13294     13295     13303     13304     13303     13305
     13303     13306     13299     13300     13299     13301     13299     13302
     13295     13296     13295     13297     13295     13298     13323     13321
     13321     13322     13321     13373     13373     13375     13375     13376
     13375     13377     13375     13378     13378     13379     13378     13380
     13378     13381     13381     13382     13381     13383     13381     13384
     13384     13385     13384     13386     13384     13387     13387     13388
     13387     13389     13387     13390     13390     13391     13390     13392
     13390     13393     13393     13394     13393     13395     13393     13396
     13396     13397     13398     13399     13398     13400     13400     13401
     13400     13402     13400     13403     13403     13404     13403     13405
     13403     13406     13406     13407     13406     13408     13406     13409
     13409     13410     13409     13411     13409     13412     13412     13413
     13412     13414     13412     13415     13415     13416     13415     13417
     13415     13418     13418     13419     13418     13420     13418     13421
     13421     13422     13421     13423     13421     13424     13329     13331
     13396     13398     13373     13374     13500     13501     13500     13502
     13500     13503     13500     13497     13497     13498     13497     13499
     13497     13494     13494     13495     13494     13496     13494     13491
     13491     13492     13491     13493     13491     13488     13488     13489
     13488     13490     13488     13485     13485     13486     13485     13487
     13485     13482     13482     13483     13482     13484     13482     13479
     13479     13480     13479     13481     13479     13476     13476     13477
     13476     13478     13476     13473     13473     13474     13473     13475
     13473     13470     13470     13471     13470     13472     13470     13467
     13467     13468     13467     13469     13467     13464     13464     13465
     13464     13466     13464     13462     13462     13463     13460     13461
     13460     13456     13456     13457     13456     13458     13458     13459
     13456     13454     13454     13455     13454     13449     13449     13450
     13449     13451     13449     13447     13447     13444     13448     13444
     13445     13444     13446     13444     13448     13441     13441     13442
     13441     13443     13441     13438     13438     13439     13438     13440
     13438     13425     13425     13434     13425     13430     13425     13426
     13434     13435     13434     13436     13434     13437     13430     13431
     13430     13432     13430     13433     13426     13427     13426     13428
     13426     13429     13454     13452     13452     13453     13452     13504
     13504     13506     13506     13507     13506     13508     13506     13509
     13509     13510     13509     13511     13509     13512     13512     13513
     13512     13514     13512     13515     13515     13516     13515     13517
     13515     13518     13518     13519     13518     13520     13518     13521
     13521     13522     13521     13523     13521     13524     13524     13525
     13524     13526     13524     13527     13527     13528     13529     13530
     13529     13531     13531     13532     13531     13533     13531     13534
     13534     13535     13534     13536     13534     13537     13537     13538
     13537     13539     13537     13540     13540     13541     13540     13542
     13540     13543     13543     13544     13543     13545     13543     13546
     13546     13547     13546     13548     13546     13549     13549     13550
     13549     13551     13549     13552     13552     13553     13552     13554
     13552     13555     13460     13462     13527     13529     13504     13505
     13556     13558     13556     13557     13558     13559     13556     13602
     13602     13603     13602     13604     13602     13599     13599     13600
     13599     13601     13556     13560     13560     13561     13560     13562
     13560     13563     13563     13594     13594     13599     13594     13595
     13595     13596     13595     13597     13595     13598     13563     13564
     13564     13565     13564     13566     13566     13567     13566     13568
     13566     13569     13569     13570     13569     13592     13592     13593
     13592     13594     13569     13571     13571     13572     13571     13581
     13581     13586     13586     13587     13586     13588     13586     13589
     13589     13590     13589     13591     13589     13592     13581     13582
     13582     13583     13582     13584     13582     13585     13571     13573
     13573     13574     13573     13575     13573     13576     13576     13577
     13576     13578     13576     13579     13579     13580     13579     13581
     13579     13605     13605     13606     13605     13607     13607     13608
     13607     13609     13607     13610     13605     13611     13611     13612
     13611     13613     13611     13614     13614     13615     13614     13616
     13614     13617     13617     13618     13617     13619     13617     13620
     13620     13621     13620     13622     13622     13623     13622     13624
     13622     13625     13620     13626     13626     13627     13626     13628
     13626     13629     13705     13706     13705     13707     13705     13708
     13705     13702     13702     13703     13702     13704     13702     13699
     13699     13700     13699     13701     13699     13696     13696     13697
     13696     13698     13696     13693     13693     13694     13693     13695
     13693     13690     13690     13691     13690     13692     13690     13687
     13687     13688     13687     13689     13687     13684     13684     13685
     13684     13686     13684     13681     13681     13682     13681     13683
     13681     13678     13678     13679     13678     13680     13678     13675
     13675     13676     13675     13677     13675     13672     13672     13673
     13672     13674     13672     13669     13669     13670     13669     13671
     13669     13667     13667     13668     13665     13666     13665     13661
     13661     13662     13661     13663     13663     13664     13661     13659
     13659     13660     13659     13654     13654     13655     13654     13656
     13654     13652     13652     13649     13653     13649     13650     13649
     13651     13649     13653     13646     13646     13647     13646     13648
     13646     13643     13643     13644     13643     13645     13643     13630
     13630     13639     13630     13635     13630     13631     13639     13640
     13639     13641     13639     13642     13635     13636     13635     13637
     13635     13638     13631     13632     13631     13633     13631     13634
     13659     13657     13657     13658     13657     13709     13709     13711
     13711     13712     13711     13713     13711     13714     13714     13715
     13714     13716     13714     13717     13717     13718     13717     13719
     13717     13720     13720     13721     13720     13722     13720     13723
     13723     13724     13723     13725     13723     13726     13726     13727
     13726     13728     13726     13729     13729     13730     13729     13731
     13729     13732     13732     13733     13734     13735     13734     13736
     13736     13737     13736     13738     13736     13739     13739     13740
     13739     13741     13739     13742     13742     13743     13742     13744
     13742     13745     13745     13746     13745     13747     13745     13748
     13748     13749     13748     13750     13748     13751     13751     13752
     13751     13753     13751     13754     13754     13755     13754     13756
     13754     13757     13757     13758     13757     13759     13757     13760
     13665     13667     13732     13734     13709     13710     13836     13837
     13836     13838     13836     13839     13836     13833     13833     13834
     13833     13835     13833     13830     13830     13831     13830     13832
     13830     13827     13827     13828     13827     13829     13827     13824
     13824     13825     13824     13826     13824     13821     13821     13822
     13821     13823     13821     13818     13818     13819     13818     13820
     13818     13815     13815     13816     13815     13817     13815     13812
     13812     13813     13812     13814     13812     13809     13809     13810
     13809     13811     13809     13806     13806     13807     13806     13808
     13806     13803     13803     13804     13803     13805     13803     13800
     13800     13801     13800     13802     13800     13798     13798     13799
     13796     13797     13796     13792     13792     13793     13792     13794
     13794     13795     13792     13790     13790     13791     13790     13785
     13785     13786     13785     13787     13785     13783     13783     13780
     13784     13780     13781     13780     13782     13780     13784     13777
     13777     13778     13777     13779     13777     13774     13774     13775
     13774     13776     13774     13761     13761     13770     13761     13766
     13761     13762     13770     13771     13770     13772     13770     13773
     13766     13767     13766     13768     13766     13769     13762     13763
     13762     13764     13762     13765     13790     13788     13788     13789
     13788     13840     13840     13842     13842     13843     13842     13844
     13842     13845     13845     13846     13845     13847     13845     13848
     13848     13849     13848     13850     13848     13851     13851     13852
     13851     13853     13851     13854     13854     13855     13854     13856
     13854     13857     13857     13858     13857     13859     13857     13860
     13860     13861     13860     13862     13860     13863     13863     13864
     13865     13866     13865     13867     13867     13868     13867     13869
     13867     13870     13870     13871     13870     13872     13870     13873
     13873     13874     13873     13875     13873     13876     13876     13877
     13876     13878     13876     13879     13879     13880     13879     13881
     13879     13882     13882     13883     13882     13884     13882     13885
     13885     13886     13885     13887     13885     13888     13888     13889
     13888     13890     13888     13891     13796     13798     13863     13865
     13840     13841     13967     13968     13967     13969     13967     13970
     13967     13964     13964     13965     13964     13966     13964     13961
     13961     13962     13961     13963     13961     13958     13958     13959
     13958     13960     13958     13955     13955     13956     13955     13957
     13955     13952     13952     13953     13952     13954     13952     13949
     13949     13950     13949     13951     13949     13946     13946     13947
     13946     13948     13946     13943     13943     13944     13943     13945
     13943     13940     13940     13941     13940     13942     13940     13937
     13937     13938     13937     13939     13937     13934     13934     13935
     13934     13936     13934     13931     13931     13932     13931     13933
     13931     13929     13929     13930     13927     13928     13927     13923
     13923     13924     13923     13925     13925     13926     13923     13921
     13921     13922     13921     13916     13916     13917     13916     13918
     13916     13914     13914     13911     13915     13911     13912     13911
     13913     13911     13915     13908     13908     13909     13908     13910
     13908     13905     13905     13906     13905     13907     13905     13892
     13892     13901     13892     13897     13892     13893     13901     13902
     13901     13903     13901     13904     13897     13898     13897     13899
     13897     13900     13893     13894     13893     13895     13893     13896
     13921     13919     13919     13920     13919     13971     13971     13973
     13973     13974     13973     13975     13973     13976     13976     13977
     13976     13978     13976     13979     13979     13980     13979     13981
     13979     13982     13982     13983     13982     13984     13982     13985
     13985     13986     13985     13987     13985     13988     13988     13989
     13988     13990     13988     13991     13991     13992     13991     13993
     13991     13994     13994     13995     13996     13997     13996     13998
     13998     13999     13998     14000     13998     14001     14001     14002
     14001     14003     14001     14004     14004     14005     14004     14006
     14004     14007     14007     14008     14007     14009     14007     14010
     14010     14011     14010     14012     14010     14013     14013     14014
     14013     14015     14013     14016     14016     14017     14016     14018
     14016     14019     14019     14020     14019     14021     14019     14022
     13927     13929     13994     13996     13971     13972     14098     14099
     14098     14100     14098     14101     14098     14095     14095     14096
     14095     14097     14095     14092     14092     14093     14092     14094
     14092     14089     14089     14090     14089     14091     14089     14086
     14086     14087     14086     14088     14086     14083     14083     14084
     14083     14085     14083     14080     14080     14081     14080     14082
     14080     14077     14077     14078     14077     14079     14077     14074
     14074     14075     14074     14076     14074     14071     14071     14072
     14071     14073     14071     14068     14068     14069     14068     14070
     14068     14065     14065     14066     14065     14067     14065     14062
     14062     14063     14062     14064     14062     14060     14060     14061
     14058     14059     14058     14054     14054     14055     14054     14056
     14056     14057     14054     14052     14052     14053     14052     14047
     14047     14048     14047     14049     14047     14045     14045     14042
     14046     14042     14043     14042     14044     14042     14046     14039
     14039     14040     14039     14041     14039     14036     14036     14037
     14036     14038     14036     14023     14023     14032     14023     14028
     14023     14024     14032     14033     14032     14034     14032     14035
     14028     14029     14028     14030     14028     14031     14024     14025
     14024     14026     14024     14027     14052     14050     14050     14051
     14050     14102     14102     14104     14104     14105     14104     14106
     14104     14107     14107     14108     14107     14109     14107     14110
     14110     14111     14110     14112     14110     14113     14113     14114
     14113     14115     14113     14116     14116     14117     14116     14118
     14116     14119     14119     14120     14119     14121     14119     14122
     14122     14123     14122     14124     14122     14125     14125     14126
     14127     14128     14127     14129     14129     14130     14129     14131
     14129     14132     14132     14133     14132     14134     14132     14135
     14135     14136     14135     14137     14135     14138     14138     14139
     14138     14140     14138     14141     14141     14142     14141     14143
     14141     14144     14144     14145     14144     14146     14144     14147
     14147     14148     14147     14149     14147     14150     14150     14151
     14150     14152     14150     14153     14058     14060     14125     14127
     14102     14103     14154     14156     14154     14155     14156     14157
     14154     14200     14200     14201     14200     14202     14200     14197
     14197     14198     14197     14199     14154     14158     14158     14159
     14158     14160     14158     14161     14161     14192     14192     14197
     14192     14193     14193     14194     14193     14195     14193     14196
     14161     14162     14162     14163     14162     14164     14164     14165
     14164     14166     14164     14167     14167     14168     14167     14190
     14190     14191     14190     14192     14167     14169     14169     14170
     14169     14179     14179     14184     14184     14185     14184     14186
     14184     14187     14187     14188     14187     14189     14187     14190
     14179     14180     14180     14181     14180     14182     14180     14183
     14169     14171     14171     14172     14171     14173     14171     14174
     14174     14175     14174     14176     14174     14177     14177     14178
     14177     14179     14177     14203     14203     14204     14203     14205
     14205     14206     14205     14207     14205     14208     14203     14209
     14209     14210     14209     14211     14209     14212     14212     14213
     14212     14214     14212     14215     14215     14216     14215     14217
     14215     14218     14218     14219     14218     14220     14220     14221
     14220     14222     14220     14223     14218     14224     14224     14225
     14224     14226     14224     14227     14228     14230     14228     14229
     14230     14231     14228     14274     14274     14275     14274     14276
     14274     14271     14271     14272     14271     14273     14228     14232
     14232     14233     14232     14234     14232     14235     14235     14266
     14266     14271     14266     14267     14267     14268     14267     14269
     14267     14270     14235     14236     14236     14237     14236     14238
     14238     14239     14238     14240     14238     14241     14241     14242
     14241     14264     14264     14265     14264     14266     14241     14243
     14243     14244     14243     14253     14253     14258     14258     14259
     14258     14260     14258     14261     14261     14262     14261     14263
     14261     14264     14253     14254     14254     14255     14254     14256
     14254     14257     14243     14245     14245     14246     14245     14247
     14245     14248     14248     14249     14248     14250     14248     14251
     14251     14252     14251     14253     14251     14277     14277     14278
     14277     14279     14279     14280     14279     14281     14279     14282
     14277     14283     14283     14284     14283     14285     14283     14286
     14286     14287     14286     14288     14286     14289     14289     14290
     14289     14291     14289     14292     14292     14293     14292     14294
     14294     14295     14294     14296     14294     14297     14292     14298
     14298     14299     14298     14300     14298     14301     14377     14378
     14377     14379     14377     14380     14377     14374     14374     14375
     14374     14376     14374     14371     14371     14372     14371     14373
     14371     14368     14368     14369     14368     14370     14368     14365
     14365     14366     14365     14367     14365     14362     14362     14363
     14362     14364     14362     14359     14359     14360     14359     14361
     14359     14356     14356     14357     14356     14358     14356     14353
     14353     14354     14353     14355     14353     14350     14350     14351
     14350     14352     14350     14347     14347     14348     14347     14349
     14347     14344     14344     14345     14344     14346     14344     14341
     14341     14342     14341     14343     14341     14339     14339     14340
     14337     14338     14337     14333     14333     14334     14333     14335
     14335     14336     14333     14331     14331     14332     14331     14326
     14326     14327     14326     14328     14326     14324     14324     14321
     14325     14321     14322     14321     14323     14321     14325     14318
     14318     14319     14318     14320     14318     14315     14315     14316
     14315     14317     14315     14302     14302     14311     14302     14307
     14302     14303     14311     14312     14311     14313     14311     14314
     14307     14308     14307     14309     14307     14310     14303     14304
     14303     14305     14303     14306     14331     14329     14329     14330
     14329     14381     14381     14383     14383     14384     14383     14385
     14383     14386     14386     14387     14386     14388     14386     14389
     14389     14390     14389     14391     14389     14392     14392     14393
     14392     14394     14392     14395     14395     14396     14395     14397
     14395     14398     14398     14399     14398     14400     14398     14401
     14401     14402     14401     14403     14401     14404     14404     14405
     14406     14407     14406     14408     14408     14409     14408     14410
     14408     14411     14411     14412     14411     14413     14411     14414
     14414     14415     14414     14416     14414     14417     14417     14418
     14417     14419     14417     14420     14420     14421     14420     14422
     14420     14423     14423     14424     14423     14425     14423     14426
     14426     14427     14426     14428     14426     14429     14429     14430
     14429     14431     14429     14432     14337     14339     14404     14406
     14381     14382     14433     14435     14433     14434     14435     14436
     14433     14479     14479     14480     14479     14481     14479     14476
     14476     14477     14476     14478     14433     14437     14437     14438
     14437     14439     14437     14440     14440     14471     14471     14476
     14471     14472     14472     14473     14472     14474     14472     14475
     14440     14441     14441     14442     14441     14443     14443     14444
     14443     14445     14443     14446     14446     14447     14446     14469
     14469     14470     14469     14471     14446     14448     14448     14449
     14448     14458     14458     14463     14463     14464     14463     14465
     14463     14466     14466     14467     14466     14468     14466     14469
     14458     14459     14459     14460     14459     14461     14459     14462
     14448     14450     14450     14451     14450     14452     14450     14453
     14453     14454     14453     14455     14453     14456     14456     14457
     14456     14458     14456     14482     14482     14483     14482     14484
     14484     14485     14484     14486     14484     14487     14482     14488
     14488     14489     14488     14490     14488     14491     14491     14492
     14491     14493     14491     14494     14494     14495     14494     14496
     14494     14497     14497     14498     14497     14499     14499     14500
     14499     14501     14499     14502     14497     14503     14503     14504
     14503     14505     14503     14506     14507     14509     14507     14508
     14509     14510     14507     14553     14553     14554     14553     14555
     14553     14550     14550     14551     14550     14552     14507     14511
     14511     14512     14511     14513     14511     14514     14514     14545
     14545     14550     14545     14546     14546     14547     14546     14548
     14546     14549     14514     14515     14515     14516     14515     14517
     14517     14518     14517     14519     14517     14520     14520     14521
     14520     14543     14543     14544     14543     14545     14520     14522
     14522     14523     14522     14532     14532     14537     14537     14538
     14537     14539     14537     14540     14540     14541     14540     14542
     14540     14543     14532     14533     14533     14534     14533     14535
     14533     14536     14522     14524     14524     14525     14524     14526
     14524     14527     14527     14528     14527     14529     14527     14530
     14530     14531     14530     14532     14530     14556     14556     14557
     14556     14558     14558     14559     14558     14560     14558     14561
     14556     14562     14562     14563     14562     14564     14562     14565
     14565     14566     14565     14567     14565     14568     14568     14569
     14568     14570     14568     14571     14571     14572     14571     14573
     14573     14574     14573     14575     14573     14576     14571     14577
     14577     14578     14577     14579     14577     14580     14581     14583
     14581     14582     14583     14584     14581     14627     14627     14628
     14627     14629     14627     14624     14624     14625     14624     14626
     14581     14585     14585     14586     14585     14587     14585     14588
     14588     14619     14619     14624     14619     14620     14620     14621
     14620     14622     14620     14623     14588     14589     14589     14590
     14589     14591     14591     14592     14591     14593     14591     14594
     14594     14595     14594     14617     14617     14618     14617     14619
     14594     14596     14596     14597     14596     14606     14606     14611
     14611     14612     14611     14613     14611     14614     14614     14615
     14614     14616     14614     14617     14606     14607     14607     14608
     14607     14609     14607     14610     14596     14598     14598     14599
     14598     14600     14598     14601     14601     14602     14601     14603
     14601     14604     14604     14605     14604     14606     14604     14630
     14630     14631     14630     14632     14632     14633     14632     14634
     14632     14635     14630     14636     14636     14637     14636     14638
     14636     14639     14639     14640     14639     14641     14639     14642
     14642     14643     14642     14644     14642     14645     14645     14646
     14645     14647     14647     14648     14647     14649     14647     14650
     14645     14651     14651     14652     14651     14653     14651     14654
     14655     14656     14655     14657     14655     14658     14655     14659
     14659     14660     14659     14661     14659     14662     14662     14663
     14662     14664     14662     14668     14670     14669     14668     14665
     14665     14669     14665     14666     14665     14667     14670     14671
     14670     14672     14670     14673     14673     14674     14673     14681
     14673     14675     14681     14682     14681     14683     14681     14684
     14675     14676     14676     14678     14676     14677     14678     14679
     14678     14680     14678     14690     14690     14691     14690     14692
     14690     14693     14693     14694     14693     14695     14693     14696
     14696     14697     14696     14698     14698     14699     14698     14700
     14700     14701     14700     14702     14700     14703     14703     14704
     14703     14705     14705     14706     14705     14707     14707     14708
     14707     14709     14707     14710     14710     14711     14710     14712
     14712     14713     14712     14714     14714     14715     14714     14716
     14714     14717     14717     14718     14717     14719     14719     14720
     14719     14721     14721     14722     14721     14723     14721     14724
     14724     14725     14724     14726     14724     14727     14727     14728
     14727     14729     14727     14730     14730     14731     14730     14732
     14730     14733     14733     14734     14733     14735     14733     14736
     14684     14685     14685     14687     14685     14686     14687     14688
     14687     14689     14687     14737     14737     14738     14737     14739
     14737     14740     14740     14741     14740     14742     14740     14743
     14743     14744     14743     14745     14743     14746     14746     14747
     14746     14748     14746     14749     14749     14750     14749     14751
     14749     14752     14752     14753     14752     14754     14752     14755
     14755     14756     14755     14757     14755     14758     14758     14759
     14758     14760     14758     14761     14761     14762     14761     14763
     14761     14764     14764     14765     14764     14766     14764     14767
     14767     14768     14767     14769     14767     14770     14770     14771
     14770     14772     14770     14773     14773     14774     14773     14775
     14773     14776     14776     14777     14776     14778     14776     14779
     14779     14780     14779     14781     14779     14782     14782     14783
     14782     14784     14782     14785     14786     14788     14786     14787
     14788     14789     14786     14832     14832     14833     14832     14834
     14832     14829     14829     14830     14829     14831     14786     14790
     14790     14791     14790     14792     14790     14793     14793     14824
     14824     14829     14824     14825     14825     14826     14825     14827
     14825     14828     14793     14794     14794     14795     14794     14796
     14796     14797     14796     14798     14796     14799     14799     14800
     14799     14822     14822     14823     14822     14824     14799     14801
     14801     14802     14801     14811     14811     14816     14816     14817
     14816     14818     14816     14819     14819     14820     14819     14821
     14819     14822     14811     14812     14812     14813     14812     14814
     14812     14815     14801     14803     14803     14804     14803     14805
     14803     14806     14806     14807     14806     14808     14806     14809
     14809     14810     14809     14811     14809     14835     14835     14836
     14835     14837     14837     14838     14837     14839     14837     14840
     14835     14841     14841     14842     14841     14843     14841     14844
     14844     14845     14844     14846     14844     14847     14847     14848
     14847     14849     14847     14850     14850     14851     14850     14852
     14852     14853     14852     14854     14852     14855     14850     14856
     14856     14857     14856     14858     14856     14859     14860     14861
     14860     14862     14860     14863     14860     14864     14868     14866
     14866     14864     14866     14867     14864     14865     14864     14869
     14877     14876     14869     14870     14869     14871     14869     14875
     14875     14872     14872     14876     14872     14873     14872     14874
     14877     14878     14877     14879     14877     14880     14880     14881
     14880     14888     14880     14882     14888     14889     14888     14890
     14888     14891     14882     14883     14883     14885     14883     14884
     14885     14886     14885     14887     14885     14897     14897     14898
     14897     14899     14897     14900     14900     14901     14900     14902
     14900     14903     14903     14904     14903     14905     14905     14906
     14905     14907     14907     14908     14907     14909     14907     14910
     14910     14911     14910     14912     14912     14913     14912     14914
     14914     14915     14914     14916     14914     14917     14917     14918
     14917     14919     14919     14920     14919     14921     14921     14922
     14921     14923     14921     14924     14924     14925     14924     14926
     14926     14927     14926     14928     14928     14929     14928     14930
     14928     14931     14931     14932     14931     14933     14931     14934
     14934     14935     14934     14936     14934     14937     14937     14938
     14937     14939     14937     14940     14940     14941     14940     14942
     14940     14943     14891     14892     14892     14894     14892     14893
     14894     14895     14894     14896     14894     14944     14944     14945
     14944     14946     14944     14947     14947     14948     14947     14949
     14947     14950     14950     14951     14950     14952     14950     14953
     14953     14954     14953     14955     14953     14956     14956     14957
     14956     14958     14956     14959     14959     14960     14959     14961
     14959     14962     14962     14963     14962     14964     14962     14965
     14965     14966     14965     14967     14965     14968     14968     14969
     14968     14970     14968     14971     14971     14972     14971     14973
     14971     14974     14974     14975     14974     14976     14974     14977
     14977     14978     14977     14979     14977     14980     14980     14981
     14980     14982     14980     14983     14983     14984     14983     14985
     14983     14986     14986     14987     14986     14988     14986     14989
     14989     14990     14989     14991     14989     14992     15068     15069
     15068     15070     15068     15071     15068     15065     15065     15066
     15065     15067     15065     15062     15062     15063     15062     15064
     15062     15059     15059     15060     15059     15061     15059     15056
     15056     15057     15056     15058     15056     15053     15053     15054
     15053     15055     15053     15050     15050     15051     15050     15052
     15050     15047     15047     15048     15047     15049     15047     15044
     15044     15045     15044     15046     15044     15041     15041     15042
     15041     15043     15041     15038     15038     15039     15038     15040
     15038     15035     15035     15036     15035     15037     15035     15032
     15032     15033     15032     15034     15032     15030     15030     15031
     15028     15029     15028     15024     15024     15025     15024     15026
     15026     15027     15024     15022     15022     15023     15022     15017
     15017     15018     15017     15019     15017     15015     15015     15012
     15016     15012     15013     15012     15014     15012     15016     15009
     15009     15010     15009     15011     15009     15006     15006     15007
     15006     15008     15006     14993     14993     15002     14993     14998
     14993     14994     15002     15003     15002     15004     15002     15005
     14998     14999     14998     15000     14998     15001     14994     14995
     14994     14996     14994     14997     15022     15020     15020     15021
     15020     15072     15072     15074     15074     15075     15074     15076
     15074     15077     15077     15078     15077     15079     15077     15080
     15080     15081     15080     15082     15080     15083     15083     15084
     15083     15085     15083     15086     15086     15087     15086     15088
     15086     15089     15089     15090     15089     15091     15089     15092
     15092     15093     15092     15094     15092     15095     15095     15096
     15097     15098     15097     15099     15099     15100     15099     15101
     15099     15102     15102     15103     15102     15104     15102     15105
     15105     15106     15105     15107     15105     15108     15108     15109
     15108     15110     15108     15111     15111     15112     15111     15113
     15111     15114     15114     15115     15114     15116     15114     15117
     15117     15118     15117     15119     15117     15120     15120     15121
     15120     15122     15120     15123     15028     15030     15095     15097
     15072     15073     15199     15200     15199     15201     15199     15202
     15199     15196     15196     15197     15196     15198     15196     15193
     15193     15194     15193     15195     15193     15190     15190     15191
     15190     15192     15190     15187     15187     15188     15187     15189
     15187     15184     15184     15185     15184     15186     15184     15181
     15181     15182     15181     15183     15181     15178     15178     15179
     15178     15180     15178     15175     15175     15176     15175     15177
     15175     15172     15172     15173     15172     15174     15172     15169
     15169     15170     15169     15171     15169     15166     15166     15167
     15166     15168     15166     15163     15163     15164     15163     15165
     15163     15161     15161     15162     15159     15160     15159     15155
     15155     15156     15155     15157     15157     15158     15155     15153
     15153     15154     15153     15148     15148     15149     15148     15150
     15148     15146     15146     15143     15147     15143     15144     15143
     15145     15143     15147     15140     15140     15141     15140     15142
     15140     15137     15137     15138     15137     15139     15137     15124
     15124     15133     15124     15129     15124     15125     15133     15134
     15133     15135     15133     15136     15129     15130     15129     15131
     15129     15132     15125     15126     15125     15127     15125     15128
     15153     15151     15151     15152     15151     15203     15203     15205
     15205     15206     15205     15207     15205     15208     15208     15209
     15208     15210     15208     15211     15211     15212     15211     15213
     15211     15214     15214     15215     15214     15216     15214     15217
     15217     15218     15217     15219     15217     15220     15220     15221
     15220     15222     15220     15223     15223     15224     15223     15225
     15223     15226     15226     15227     15228     15229     15228     15230
     15230     15231     15230     15232     15230     15233     15233     15234
     15233     15235     15233     15236     15236     15237     15236     15238
     15236     15239     15239     15240     15239     15241     15239     15242
     15242     15243     15242     15244     15242     15245     15245     15246
     15245     15247     15245     15248     15248     15249     15248     15250
     15248     15251     15251     15252     15251     15253     15251     15254
     15159     15161     15226     15228     15203     15204     15255     15256
     15255     15260     15255     15264     15256     15257     15256     15258
     15256     15259     15260     15261     15260     15262     15260     15263
     15264     15265     15264     15266     15264     15267     15255     15268
     15268     15269     15268     15270     15268     15271     15271     15272
     15271     15273     15271     15277     15278     15279     15277     15274
     15274     15278     15274     15275     15274     15276     15279     15280
     15279     15281     15279     15282     15282     15283     15282     15290
     15282     15284     15290     15291     15290     15292     15290     15293
     15284     15285     15285     15287     15285     15286     15287     15288
     15287     15289     15287     15299     15299     15300     15299     15301
     15299     15302     15302     15303     15302     15304     15302     15305
     15305     15306     15305     15307     15305     15308     15308     15309
     15308     15310     15308     15311     15311     15312     15311     15313
     15311     15314     15314     15315     15314     15316     15314     15317
     15317     15318     15317     15319     15319     15320     15319     15321
     15321     15322     15321     15323     15321     15324     15324     15325
     15324     15326     15326     15327     15326     15328     15328     15329
     15328     15330     15328     15331     15331     15332     15331     15333
     15331     15334     15334     15335     15334     15336     15334     15337
     15337     15338     15337     15339     15337     15340     15340     15341
     15340     15342     15340     15343     15293     15294     15294     15296
     15294     15295     15296     15297     15296     15298     15296     15344
     15344     15345     15344     15346     15344     15347     15347     15348
     15347     15349     15347     15350     15350     15351     15350     15352
     15350     15353     15353     15354     15353     15355     15353     15356
     15356     15357     15356     15358     15356     15359     15359     15360
     15359     15361     15359     15362     15362     15363     15362     15364
     15362     15365     15365     15366     15365     15367     15365     15368
     15368     15369     15368     15370     15368     15371     15371     15372
     15371     15373     15371     15374     15374     15375     15374     15376
     15374     15377     15377     15378     15377     15379     15377     15380
     15380     15381     15380     15382     15380     15383     15383     15384
     15383     15385     15383     15386     15386     15387     15386     15388
     15386     15389     15389     15390     15389     15391     15389     15392
     15468     15469     15468     15470     15468     15471     15468     15465
     15465     15466     15465     15467     15465     15462     15462     15463
     15462     15464     15462     15459     15459     15460     15459     15461
     15459     15456     15456     15457     15456     15458     15456     15453
     15453     15454     15453     15455     15453     15450     15450     15451
     15450     15452     15450     15447     15447     15448     15447     15449
     15447     15444     15444     15445     15444     15446     15444     15441
     15441     15442     15441     15443     15441     15438     15438     15439
     15438     15440     15438     15435     15435     15436     15435     15437
     15435     15432     15432     15433     15432     15434     15432     15430
     15430     15431     15428     15429     15428     15424     15424     15425
     15424     15426     15426     15427     15424     15422     15422     15423
     15422     15417     15417     15418     15417     15419     15417     15415
     15415     15412     15416     15412     15413     15412     15414     15412
     15416     15409     15409     15410     15409     15411     15409     15406
     15406     15407     15406     15408     15406     15393     15393     15402
     15393     15398     15393     15394     15402     15403     15402     15404
     15402     15405     15398     15399     15398     15400     15398     15401
     15394     15395     15394     15396     15394     15397     15422     15420
     15420     15421     15420     15472     15472     15474     15474     15475
     15474     15476     15474     15477     15477     15478     15477     15479
     15477     15480     15480     15481     15480     15482     15480     15483
     15483     15484     15483     15485     15483     15486     15486     15487
     15486     15488     15486     15489     15489     15490     15489     15491
     15489     15492     15492     15493     15492     15494     15492     15495
     15495     15496     15497     15498     15497     15499     15499     15500
     15499     15501     15499     15502     15502     15503     15502     15504
     15502     15505     15505     15506     15505     15507     15505     15508
     15508     15509     15508     15510     15508     15511     15511     15512
     15511     15513     15511     15514     15514     15515     15514     15516
     15514     15517     15517     15518     15517     15519     15517     15520
     15520     15521     15520     15522     15520     15523     15428     15430
     15495     15497     15472     15473     15524     15528     15524     15532
     15524     15536     15528     15529     15528     15530     15528     15531
     15532     15533     15532     15534     15532     15535     15536     15537
     15536     15538     15536     15539     15524     15525     15525     15526
     15525     15527     15525     15540     15540     15541     15540     15542
     15540     15546     15547     15548     15546     15543     15543     15547
     15543     15544     15543     15545     15548     15549     15548     15550
     15548     15551     15551     15552     15551     15559     15551     15553
     15559     15560     15559     15561     15559     15562     15553     15554
     15554     15556     15554     15555     15556     15557     15556     15558
     15556     15568     15568     15569     15568     15570     15568     15571
     15571     15572     15571     15573     15571     15574     15574     15575
     15574     15576     15576     15577     15576     15578     15578     15579
     15578     15580     15578     15581     15581     15582     15581     15583
     15583     15584     15583     15585     15585     15586     15585     15587
     15585     15588     15588     15589     15588     15590     15590     15591
     15590     15592     15592     15593     15592     15594     15592     15595
     15595     15596     15595     15597     15597     15598     15597     15599
     15599     15600     15599     15601     15599     15602     15602     15603
     15602     15604     15602     15605     15605     15606     15605     15607
     15605     15608     15608     15609     15608     15610     15608     15611
     15611     15612     15611     15613     15611     15614     15562     15563
     15563     15565     15563     15564     15565     15566     15565     15567
     15565     15615     15615     15616     15615     15617     15615     15618
     15618     15619     15618     15620     15618     15621     15621     15622
     15621     15623     15621     15624     15624     15625     15624     15626
     15624     15627     15627     15628     15627     15629     15627     15630
     15630     15631     15630     15632     15630     15633     15633     15634
     15633     15635     15633     15636     15636     15637     15636     15638
     15636     15639     15639     15640     15639     15641     15639     15642
     15642     15643     15642     15644     15642     15645     15645     15646
     15645     15647     15645     15648     15648     15649     15648     15650
     15648     15651     15651     15652     15651     15653     15651     15654
     15654     15655     15654     15656     15654     15657     15657     15658
     15657     15659     15657     15660     15660     15661     15660     15662
     15660     15663     15664     15665     15664     15666     15664     15667
     15664     15668     15672     15670     15670     15668     15670     15671
     15668     15669     15668     15673     15681     15680     15673     15674
     15673     15675     15673     15679     15679     15676     15676     15680
     15676     15677     15676     15678     15681     15682     15681     15683
     15681     15684     15684     15685     15684     15692     15684     15686
     15692     15693     15692     15694     15692     15695     15686     15687
     15687     15689     15687     15688     15689     15690     15689     15691
     15689     15701     15701     15702     15701     15703     15701     15704
     15704     15705     15704     15706     15704     15707     15707     15708
     15707     15709     15709     15710     15709     15711     15711     15712
     15711     15713     15711     15714     15714     15715     15714     15716
     15716     15717     15716     15718     15718     15719     15718     15720
     15718     15721     15721     15722     15721     15723     15723     15724
     15723     15725     15725     15726     15725     15727     15725     15728
     15728     15729     15728     15730     15730     15731     15730     15732
     15732     15733     15732     15734     15732     15735     15735     15736
     15735     15737     15735     15738     15738     15739     15738     15740
     15738     15741     15741     15742     15741     15743     15741     15744
     15744     15745     15744     15746     15744     15747     15695     15696
     15696     15698     15696     15697     15698     15699     15698     15700
     15698     15748     15748     15749     15748     15750     15748     15751
     15751     15752     15751     15753     15751     15754     15754     15755
     15754     15756     15754     15757     15757     15758     15757     15759
     15757     15760     15760     15761     15760     15762     15760     15763
     15763     15764     15763     15765     15763     15766     15766     15767
     15766     15768     15766     15769     15769     15770     15769     15771
     15769     15772     15772     15773     15772     15774     15772     15775
     15775     15776     15775     15777     15775     15778     15778     15779
     15778     15780     15778     15781     15781     15782     15781     15783
     15781     15784     15784     15785     15784     15786     15784     15787
     15787     15788     15787     15789     15787     15790     15790     15791
     15790     15792     15790     15793     15793     15794     15793     15795
     15793     15796     15797     15799     15797     15798     15799     15800
     15797     15843     15843     15844     15843     15845     15843     15840
     15840     15841     15840     15842     15797     15801     15801     15802
     15801     15803     15801     15804     15804     15835     15835     15840
     15835     15836     15836     15837     15836     15838     15836     15839
     15804     15805     15805     15806     15805     15807     15807     15808
     15807     15809     15807     15810     15810     15811     15810     15833
     15833     15834     15833     15835     15810     15812     15812     15813
     15812     15822     15822     15827     15827     15828     15827     15829
     15827     15830     15830     15831     15830     15832     15830     15833
     15822     15823     15823     15824     15823     15825     15823     15826
     15812     15814     15814     15815     15814     15816     15814     15817
     15817     15818     15817     15819     15817     15820     15820     15821
     15820     15822     15820     15846     15846     15847     15846     15848
     15848     15849     15848     15850     15848     15851     15846     15852
     15852     15853     15852     15854     15852     15855     15855     15856
     15855     15857     15855     15858     15858     15859     15858     15860
     15858     15861     15861     15862     15861     15863     15863     15864
     15863     15865     15863     15866     15861     15867     15867     15868
     15867     15869     15867     15870     15871     15872     15871     15873
     15871     15874     15871     15875     15875     15876     15875     15877
     15875     15878     15878     15879     15878     15880     15878     15884
     15886     15885     15884     15881     15881     15885     15881     15882
     15881     15883     15886     15887     15886     15888     15886     15889
     15889     15890     15889     15897     15889     15891     15897     15898
     15897     15899     15897     15900     15891     15892     15892     15894
     15892     15893     15894     15895     15894     15896     15894     15906
     15906     15907     15906     15908     15906     15909     15909     15910
     15909     15911     15909     15912     15912     15913     15912     15914
     15912     15915     15915     15916     15915     15917     15915     15918
     15918     15919     15918     15920     15918     15921     15921     15922
     15921     15923     15921     15924     15924     15925     15924     15926
     15926     15927     15926     15928     15928     15929     15928     15930
     15928     15931     15931     15932     15931     15933     15931     15934
     15934     15935     15934     15936     15934     15937     15937     15938
     15937     15939     15937     15940     15940     15941     15940     15942
     15940     15943     15943     15944     15943     15945     15943     15946
     15946     15947     15946     15948     15946     15949     15949     15950
     15949     15951     15949     15952     15900     15901     15901     15903
     15901     15902     15903     15904     15903     15905     15903     15953
     15953     15954     15953     15955     15953     15956     15956     15957
     15956     15958     15956     15959     15959     15960     15959     15961
     15959     15962     15962     15963     15962     15964     15962     15965
     15965     15966     15965     15967     15965     15968     15968     15969
     15968     15970     15968     15971     15971     15972     15971     15973
     15971     15974     15974     15975     15974     15976     15974     15977
     15977     15978     15977     15979     15977     15980     15980     15981
     15980     15982     15980     15983     15983     15984     15983     15985
     15983     15986     15986     15987     15986     15988     15986     15989
     15989     15990     15989     15991     15989     15992     15992     15993
     15992     15994     15992     15995     15995     15996     15995     15997
     15995     15998     15998     15999     15998     16000     15998     16001
     16002     16004     16002     16003     16004     16005     16002     16048
     16048     16049     16048     16050     16048     16045     16045     16046
     16045     16047     16002     16006     16006     16007     16006     16008
     16006     16009     16009     16040     16040     16045     16040     16041
     16041     16042     16041     16043     16041     16044     16009     16010
     16010     16011     16010     16012     16012     16013     16012     16014
     16012     16015     16015     16016     16015     16038     16038     16039
     16038     16040     16015     16017     16017     16018     16017     16027
     16027     16032     16032     16033     16032     16034     16032     16035
     16035     16036     16035     16037     16035     16038     16027     16028
     16028     16029     16028     16030     16028     16031     16017     16019
     16019     16020     16019     16021     16019     16022     16022     16023
     16022     16024     16022     16025     16025     16026     16025     16027
     16025     16051     16051     16052     16051     16053     16053     16054
     16053     16055     16053     16056     16051     16057     16057     16058
     16057     16059     16057     16060     16060     16061     16060     16062
     16060     16063     16063     16064     16063     16065     16063     16066
     16066     16067     16066     16068     16068     16069     16068     16070
     16068     16071     16066     16072     16072     16073     16072     16074
     16072     16075     16076     16080     16076     16084     16076     16088
     16080     16081     16080     16082     16080     16083     16084     16085
     16084     16086     16084     16087     16088     16089     16088     16090
     16088     16091     16076     16077     16077     16078     16077     16079
     16077     16092     16092     16093     16092     16094     16092     16098
     16099     16100     16098     16095     16095     16099     16095     16096
     16095     16097     16100     16101     16100     16102     16100     16103
     16103     16104     16103     16111     16103     16105     16111     16112
     16111     16113     16111     16114     16105     16106     16106     16108
     16106     16107     16108     16109     16108     16110     16108     16120
     16120     16121     16120     16122     16120     16123     16123     16124
     16123     16125     16123     16126     16126     16127     16126     16128
     16128     16129     16128     16130     16130     16131     16130     16132
     16130     16133     16133     16134     16133     16135     16135     16136
     16135     16137     16137     16138     16137     16139     16137     16140
     16140     16141     16140     16142     16142     16143     16142     16144
     16144     16145     16144     16146     16144     16147     16147     16148
     16147     16149     16149     16150     16149     16151     16151     16152
     16151     16153     16151     16154     16154     16155     16154     16156
     16154     16157     16157     16158     16157     16159     16157     16160
     16160     16161     16160     16162     16160     16163     16163     16164
     16163     16165     16163     16166     16114     16115     16115     16117
     16115     16116     16117     16118     16117     16119     16117     16167
     16167     16168     16167     16169     16167     16170     16170     16171
     16170     16172     16170     16173     16173     16174     16173     16175
     16173     16176     16176     16177     16176     16178     16176     16179
     16179     16180     16179     16181     16179     16182     16182     16183
     16182     16184     16182     16185     16185     16186     16185     16187
     16185     16188     16188     16189     16188     16190     16188     16191
     16191     16192     16191     16193     16191     16194     16194     16195
     16194     16196     16194     16197     16197     16198     16197     16199
     16197     16200     16200     16201     16200     16202     16200     16203
     16203     16204     16203     16205     16203     16206     16206     16207
     16206     16208     16206     16209     16209     16210     16209     16211
     16209     16212     16212     16213     16212     16214     16212     16215
     16216     16217     16216     16218     16216     16219     16216     16220
     16224     16222     16222     16220     16222     16223     16220     16221
     16220     16225     16233     16232     16225     16226     16225     16227
     16225     16231     16231     16228     16228     16232     16228     16229
     16228     16230     16233     16234     16233     16235     16233     16236
     16236     16237     16236     16244     16236     16238     16244     16245
     16244     16246     16244     16247     16238     16239     16239     16241
     16239     16240     16241     16242     16241     16243     16241     16253
     16253     16254     16253     16255     16253     16256     16256     16257
     16256     16258     16256     16259     16259     16260     16259     16261
     16261     16262     16261     16263     16263     16264     16263     16265
     16263     16266     16266     16267     16266     16268     16268     16269
     16268     16270     16270     16271     16270     16272     16270     16273
     16273     16274     16273     16275     16275     16276     16275     16277
     16277     16278     16277     16279     16277     16280     16280     16281
     16280     16282     16282     16283     16282     16284     16284     16285
     16284     16286     16284     16287     16287     16288     16287     16289
     16287     16290     16290     16291     16290     16292     16290     16293
     16293     16294     16293     16295     16293     16296     16296     16297
     16296     16298     16296     16299     16247     16248     16248     16250
     16248     16249     16250     16251     16250     16252     16250     16300
     16300     16301     16300     16302     16300     16303     16303     16304
     16303     16305     16303     16306     16306     16307     16306     16308
     16306     16309     16309     16310     16309     16311     16309     16312
     16312     16313     16312     16314     16312     16315     16315     16316
     16315     16317     16315     16318     16318     16319     16318     16320
     16318     16321     16321     16322     16321     16323     16321     16324
     16324     16325     16324     16326     16324     16327     16327     16328
     16327     16329     16327     16330     16330     16331     16330     16332
     16330     16333     16333     16334     16333     16335     16333     16336
     16336     16337     16336     16338     16336     16339     16339     16340
     16339     16341     16339     16342     16342     16343     16342     16344
     16342     16345     16345     16346     16345     16347     16345     16348
     16349     16350     16349     16354     16349     16358     16350     16351
     16350     16352     16350     16353     16354     16355     16354     16356
     16354     16357     16358     16359     16358     16360     16358     16361
     16349     16362     16362     16363     16362     16364     16362     16365
     16365     16366     16365     16367     16365     16371     16372     16373
     16371     16368     16368     16372     16368     16369     16368     16370
     16373     16374     16373     16375     16373     16376     16376     16377
     16376     16384     16376     16378     16384     16385     16384     16386
     16384     16387     16378     16379     16379     16381     16379     16380
     16381     16382     16381     16383     16381     16393     16393     16394
     16393     16395     16393     16396     16396     16397     16396     16398
     16396     16399     16399     16400     16399     16401     16399     16402
     16402     16403     16402     16404     16402     16405     16405     16406
     16405     16407     16405     16408     16408     16409     16408     16410
     16408     16411     16411     16412     16411     16413     16413     16414
     16413     16415     16415     16416     16415     16417     16415     16418
     16418     16419     16418     16420     16420     16421     16420     16422
     16422     16423     16422     16424     16422     16425     16425     16426
     16425     16427     16425     16428     16428     16429     16428     16430
     16428     16431     16431     16432     16431     16433     16431     16434
     16434     16435     16434     16436     16434     16437     16387     16388
     16388     16390     16388     16389     16390     16391     16390     16392
     16390     16438     16438     16439     16438     16440     16438     16441
     16441     16442     16441     16443     16441     16444     16444     16445
     16444     16446     16444     16447     16447     16448     16447     16449
     16447     16450     16450     16451     16450     16452     16450     16453
     16453     16454     16453     16455     16453     16456     16456     16457
     16456     16458     16456     16459     16459     16460     16459     16461
     16459     16462     16462     16463     16462     16464     16462     16465
     16465     16466     16465     16467     16465     16468     16468     16469
     16468     16470     16468     16471     16471     16472     16471     16473
     16471     16474     16474     16475     16474     16476     16474     16477
     16477     16478     16477     16479     16477     16480     16480     16481
     16480     16482     16480     16483     16483     16484     16483     16485
     16483     16486     16487     16489     16487     16488     16489     16490
     16487     16533     16533     16534     16533     16535     16533     16530
     16530     16531     16530     16532     16487     16491     16491     16492
     16491     16493     16491     16494     16494     16525     16525     16530
     16525     16526     16526     16527     16526     16528     16526     16529
     16494     16495     16495     16496     16495     16497     16497     16498
     16497     16499     16497     16500     16500     16501     16500     16523
     16523     16524     16523     16525     16500     16502     16502     16503
     16502     16512     16512     16517     16517     16518     16517     16519
     16517     16520     16520     16521     16520     16522     16520     16523
     16512     16513     16513     16514     16513     16515     16513     16516
     16502     16504     16504     16505     16504     16506     16504     16507
     16507     16508     16507     16509     16507     16510     16510     16511
     16510     16512     16510     16536     16536     16537     16536     16538
     16538     16539     16538     16540     16538     16541     16536     16542
     16542     16543     16542     16544     16542     16545     16545     16546
     16545     16547     16545     16548     16548     16549     16548     16550
     16548     16551     16551     16552     16551     16553     16553     16554
     16553     16555     16553     16556     16551     16557     16557     16558
     16557     16559     16557     16560     16561     16565     16561     16569
     16561     16573     16565     16566     16565     16567     16565     16568
     16569     16570     16569     16571     16569     16572     16573     16574
     16573     16575     16573     16576     16561     16562     16562     16563
     16562     16564     16562     16577     16577     16578     16577     16579
     16577     16583     16584     16585     16583     16580     16580     16584
     16580     16581     16580     16582     16585     16586     16585     16587
     16585     16588     16588     16589     16588     16596     16588     16590
     16596     16597     16596     16598     16596     16599     16590     16591
     16591     16593     16591     16592     16593     16594     16593     16595
     16593     16605     16605     16606     16605     16607     16605     16608
     16608     16609     16608     16610     16608     16611     16611     16612
     16611     16613     16613     16614     16613     16615     16615     16616
     16615     16617     16615     16618     16618     16619     16618     16620
     16620     16621     16620     16622     16622     16623     16622     16624
     16622     16625     16625     16626     16625     16627     16627     16628
     16627     16629     16629     16630     16629     16631     16629     16632
     16632     16633     16632     16634     16634     16635     16634     16636
     16636     16637     16636     16638     16636     16639     16639     16640
     16639     16641     16639     16642     16642     16643     16642     16644
     16642     16645     16645     16646     16645     16647     16645     16648
     16648     16649     16648     16650     16648     16651     16599     16600
     16600     16602     16600     16601     16602     16603     16602     16604
     16602     16652     16652     16653     16652     16654     16652     16655
     16655     16656     16655     16657     16655     16658     16658     16659
     16658     16660     16658     16661     16661     16662     16661     16663
     16661     16664     16664     16665     16664     16666     16664     16667
     16667     16668     16667     16669     16667     16670     16670     16671
     16670     16672     16670     16673     16673     16674     16673     16675
     16673     16676     16676     16677     16676     16678     16676     16679
     16679     16680     16679     16681     16679     16682     16682     16683
     16682     16684     16682     16685     16685     16686     16685     16687
     16685     16688     16688     16689     16688     16690     16688     16691
     16691     16692     16691     16693     16691     16694     16694     16695
     16694     16696     16694     16697     16697     16698     16697     16699
     16697     16700     16776     16777     16776     16778     16776     16779
     16776     16773     16773     16774     16773     16775     16773     16770
     16770     16771     16770     16772     16770     16767     16767     16768
     16767     16769     16767     16764     16764     16765     16764     16766
     16764     16761     16761     16762     16761     16763     16761     16758
     16758     16759     16758     16760     16758     16755     16755     16756
     16755     16757     16755     16752     16752     16753     16752     16754
     16752     16749     16749     16750     16749     16751     16749     16746
     16746     16747     16746     16748     16746     16743     16743     16744
     16743     16745     16743     16740     16740     16741     16740     16742
     16740     16738     16738     16739     16736     16737     16736     16732
     16732     16733     16732     16734     16734     16735     16732     16730
     16730     16731     16730     16725     16725     16726     16725     16727
     16725     16723     16723     16720     16724     16720     16721     16720
     16722     16720     16724     16717     16717     16718     16717     16719
     16717     16714     16714     16715     16714     16716     16714     16701
     16701     16710     16701     16706     16701     16702     16710     16711
     16710     16712     16710     16713     16706     16707     16706     16708
     16706     16709     16702     16703     16702     16704     16702     16705
     16730     16728     16728     16729     16728     16780     16780     16782
     16782     16783     16782     16784     16782     16785     16785     16786
     16785     16787     16785     16788     16788     16789     16788     16790
     16788     16791     16791     16792     16791     16793     16791     16794
     16794     16795     16794     16796     16794     16797     16797     16798
     16797     16799     16797     16800     16800     16801     16800     16802
     16800     16803     16803     16804     16805     16806     16805     16807
     16807     16808     16807     16809     16807     16810     16810     16811
     16810     16812     16810     16813     16813     16814     16813     16815
     16813     16816     16816     16817     16816     16818     16816     16819
     16819     16820     16819     16821     16819     16822     16822     16823
     16822     16824     16822     16825     16825     16826     16825     16827
     16825     16828     16828     16829     16828     16830     16828     16831
     16736     16738     16803     16805     16780     16781     16832     16834
     16832     16833     16834     16835     16832     16878     16878     16879
     16878     16880     16878     16875     16875     16876     16875     16877
     16832     16836     16836     16837     16836     16838     16836     16839
     16839     16870     16870     16875     16870     16871     16871     16872
     16871     16873     16871     16874     16839     16840     16840     16841
     16840     16842     16842     16843     16842     16844     16842     16845
     16845     16846     16845     16868     16868     16869     16868     16870
     16845     16847     16847     16848     16847     16857     16857     16862
     16862     16863     16862     16864     16862     16865     16865     16866
     16865     16867     16865     16868     16857     16858     16858     16859
     16858     16860     16858     16861     16847     16849     16849     16850
     16849     16851     16849     16852     16852     16853     16852     16854
     16852     16855     16855     16856     16855     16857     16855     16881
     16881     16882     16881     16883     16883     16884     16883     16885
     16883     16886     16881     16887     16887     16888     16887     16889
     16887     16890     16890     16891     16890     16892     16890     16893
     16893     16894     16893     16895     16893     16896     16896     16897
     16896     16898     16898     16899     16898     16900     16898     16901
     16896     16902     16902     16903     16902     16904     16902     16905
     16981     16982     16981     16983     16981     16984     16981     16978
     16978     16979     16978     16980     16978     16975     16975     16976
     16975     16977     16975     16972     16972     16973     16972     16974
     16972     16969     16969     16970     16969     16971     16969     16966
     16966     16967     16966     16968     16966     16963     16963     16964
     16963     16965     16963     16960     16960     16961     16960     16962
     16960     16957     16957     16958     16957     16959     16957     16954
     16954     16955     16954     16956     16954     16951     16951     16952
     16951     16953     16951     16948     16948     16949     16948     16950
     16948     16945     16945     16946     16945     16947     16945     16943
     16943     16944     16941     16942     16941     16937     16937     16938
     16937     16939     16939     16940     16937     16935     16935     16936
     16935     16930     16930     16931     16930     16932     16930     16928
     16928     16925     16929     16925     16926     16925     16927     16925
     16929     16922     16922     16923     16922     16924     16922     16919
     16919     16920     16919     16921     16919     16906     16906     16915
     16906     16911     16906     16907     16915     16916     16915     16917
     16915     16918     16911     16912     16911     16913     16911     16914
     16907     16908     16907     16909     16907     16910     16935     16933
     16933     16934     16933     16985     16985     16987     16987     16988
     16987     16989     16987     16990     16990     16991     16990     16992
     16990     16993     16993     16994     16993     16995     16993     16996
     16996     16997     16996     16998     16996     16999     16999     17000
     16999     17001     16999     17002     17002     17003     17002     17004
     17002     17005     17005     17006     17005     17007     17005     17008
     17008     17009     17010     17011     17010     17012     17012     17013
     17012     17014     17012     17015     17015     17016     17015     17017
     17015     17018     17018     17019     17018     17020     17018     17021
     17021     17022     17021     17023     17021     17024     17024     17025
     17024     17026     17024     17027     17027     17028     17027     17029
     17027     17030     17030     17031     17030     17032     17030     17033
     17033     17034     17033     17035     17033     17036     16941     16943
     17008     17010     16985     16986     17037     17038     17037     17039
     17037     17040     17037     17041     17041     17042     17041     17043
     17041     17044     17044     17045     17044     17046     17044     17050
     17052     17051     17050     17047     17047     17051     17047     17048
     17047     17049     17052     17053     17052     17054     17052     17055
     17055     17056     17055     17063     17055     17057     17063     17064
     17063     17065     17063     17066     17057     17058     17058     17060
     17058     17059     17060     17061     17060     17062     17060     17072
     17072     17073     17072     17074     17072     17075     17075     17076
     17075     17077     17075     17078     17078     17079     17078     17080
     17080     17081     17080     17082     17082     17083     17082     17084
     17082     17085     17085     17086     17085     17087     17087     17088
     17087     17089     17089     17090     17089     17091     17089     17092
     17092     17093     17092     17094     17094     17095     17094     17096
     17096     17097     17096     17098     17096     17099     17099     17100
     17099     17101     17101     17102     17101     17103     17103     17104
     17103     17105     17103     17106     17106     17107     17106     17108
     17106     17109     17109     17110     17109     17111     17109     17112
     17112     17113     17112     17114     17112     17115     17115     17116
     17115     17117     17115     17118     17066     17067     17067     17069
     17067     17068     17069     17070     17069     17071     17069     17119
     17119     17120     17119     17121     17119     17122     17122     17123
     17122     17124     17122     17125     17125     17126     17125     17127
     17125     17128     17128     17129     17128     17130     17128     17131
     17131     17132     17131     17133     17131     17134     17134     17135
     17134     17136     17134     17137     17137     17138     17137     17139
     17137     17140     17140     17141     17140     17142     17140     17143
     17143     17144     17143     17145     17143     17146     17146     17147
     17146     17148     17146     17149     17149     17150     17149     17151
     17149     17152     17152     17153     17152     17154     17152     17155
     17155     17156     17155     17157     17155     17158     17158     17159
     17158     17160     17158     17161     17161     17162     17161     17163
     17161     17164     17164     17165     17164     17166     17164     17167
     17243     17244     17243     17245     17243     17246     17243     17240
     17240     17241     17240     17242     17240     17237     17237     17238
     17237     17239     17237     17234     17234     17235     17234     17236
     17234     17231     17231     17232     17231     17233     17231     17228
     17228     17229     17228     17230     17228     17225     17225     17226
     17225     17227     17225     17222     17222     17223     17222     17224
     17222     17219     17219     17220     17219     17221     17219     17216
     17216     17217     17216     17218     17216     17213     17213     17214
     17213     17215     17213     17210     17210     17211     17210     17212
     17210     17207     17207     17208     17207     17209     17207     17205
     17205     17206     17203     17204     17203     17199     17199     17200
     17199     17201     17201     17202     17199     17197     17197     17198
     17197     17192     17192     17193     17192     17194     17192     17190
     17190     17187     17191     17187     17188     17187     17189     17187
     17191     17184     17184     17185     17184     17186     17184     17181
     17181     17182     17181     17183     17181     17168     17168     17177
     17168     17173     17168     17169     17177     17178     17177     17179
     17177     17180     17173     17174     17173     17175     17173     17176
     17169     17170     17169     17171     17169     17172     17197     17195
     17195     17196     17195     17247     17247     17249     17249     17250
     17249     17251     17249     17252     17252     17253     17252     17254
     17252     17255     17255     17256     17255     17257     17255     17258
     17258     17259     17258     17260     17258     17261     17261     17262
     17261     17263     17261     17264     17264     17265     17264     17266
     17264     17267     17267     17268     17267     17269     17267     17270
     17270     17271     17272     17273     17272     17274     17274     17275
     17274     17276     17274     17277     17277     17278     17277     17279
     17277     17280     17280     17281     17280     17282     17280     17283
     17283     17284     17283     17285     17283     17286     17286     17287
     17286     17288     17286     17289     17289     17290     17289     17291
     17289     17292     17292     17293     17292     17294     17292     17295
     17295     17296     17295     17297     17295     17298     17203     17205
     17270     17272     17247     17248     17299     17301     17299     17300
     17301     17302     17299     17345     17345     17346     17345     17347
     17345     17342     17342     17343     17342     17344     17299     17303
     17303     17304     17303     17305     17303     17306     17306     17337
     17337     17342     17337     17338     17338     17339     17338     17340
     17338     17341     17306     17307     17307     17308     17307     17309
     17309     17310     17309     17311     17309     17312     17312     17313
     17312     17335     17335     17336     17335     17337     17312     17314
     17314     17315     17314     17324     17324     17329     17329     17330
     17329     17331     17329     17332     17332     17333     17332     17334
     17332     17335     17324     17325     17325     17326     17325     17327
     17325     17328     17314     17316     17316     17317     17316     17318
     17316     17319     17319     17320     17319     17321     17319     17322
     17322     17323     17322     17324     17322     17348     17348     17349
     17348     17350     17350     17351     17350     17352     17350     17353
     17348     17354     17354     17355     17354     17356     17354     17357
     17357     17358     17357     17359     17357     17360     17360     17361
     17360     17362     17360     17363     17363     17364     17363     17365
     17365     17366     17365     17367     17365     17368     17363     17369
     17369     17370     17369     17371     17369     17372     17448     17449
     17448     17450     17448     17451     17448     17445     17445     17446
     17445     17447     17445     17442     17442     17443     17442     17444
     17442     17439     17439     17440     17439     17441     17439     17436
     17436     17437     17436     17438     17436     17433     17433     17434
     17433     17435     17433     17430     17430     17431     17430     17432
     17430     17427     17427     17428     17427     17429     17427     17424
     17424     17425     17424     17426     17424     17421     17421     17422
     17421     17423     17421     17418     17418     17419     17418     17420
     17418     17415     17415     17416     17415     17417     17415     17412
     17412     17413     17412     17414     17412     17410     17410     17411
     17408     17409     17408     17404     17404     17405     17404     17406
     17406     17407     17404     17402     17402     17403     17402     17397
     17397     17398     17397     17399     17397     17395     17395     17392
     17396     17392     17393     17392     17394     17392     17396     17389
     17389     17390     17389     17391     17389     17386     17386     17387
     17386     17388     17386     17373     17373     17382     17373     17378
     17373     17374     17382     17383     17382     17384     17382     17385
     17378     17379     17378     17380     17378     17381     17374     17375
     17374     17376     17374     17377     17402     17400     17400     17401
     17400     17452     17452     17454     17454     17455     17454     17456
     17454     17457     17457     17458     17457     17459     17457     17460
     17460     17461     17460     17462     17460     17463     17463     17464
     17463     17465     17463     17466     17466     17467     17466     17468
     17466     17469     17469     17470     17469     17471     17469     17472
     17472     17473     17472     17474     17472     17475     17475     17476
     17477     17478     17477     17479     17479     17480     17479     17481
     17479     17482     17482     17483     17482     17484     17482     17485
     17485     17486     17485     17487     17485     17488     17488     17489
     17488     17490     17488     17491     17491     17492     17491     17493
     17491     17494     17494     17495     17494     17496     17494     17497
     17497     17498     17497     17499     17497     17500     17500     17501
     17500     17502     17500     17503     17408     17410     17475     17477
     17452     17453     17504     17505     17504     17506     17504     17507
     17504     17508     17512     17510     17510     17508     17510     17511
     17508     17509     17508     17513     17521     17520     17513     17514
     17513     17515     17513     17519     17519     17516     17516     17520
     17516     17517     17516     17518     17521     17522     17521     17523
     17521     17524     17524     17525     17524     17532     17524     17526
     17532     17533     17532     17534     17532     17535     17526     17527
     17527     17529     17527     17528     17529     17530     17529     17531
     17529     17541     17541     17542     17541     17543     17541     17544
     17544     17545     17544     17546     17544     17547     17547     17548
     17547     17549     17549     17550     17549     17551     17551     17552
     17551     17553     17551     17554     17554     17555     17554     17556
     17556     17557     17556     17558     17558     17559     17558     17560
     17558     17561     17561     17562     17561     17563     17563     17564
     17563     17565     17565     17566     17565     17567     17565     17568
     17568     17569     17568     17570     17570     17571     17570     17572
     17572     17573     17572     17574     17572     17575     17575     17576
     17575     17577     17575     17578     17578     17579     17578     17580
     17578     17581     17581     17582     17581     17583     17581     17584
     17584     17585     17584     17586     17584     17587     17535     17536
     17536     17538     17536     17537     17538     17539     17538     17540
     17538     17588     17588     17589     17588     17590     17588     17591
     17591     17592     17591     17593     17591     17594     17594     17595
     17594     17596     17594     17597     17597     17598     17597     17599
     17597     17600     17600     17601     17600     17602     17600     17603
     17603     17604     17603     17605     17603     17606     17606     17607
     17606     17608     17606     17609     17609     17610     17609     17611
     17609     17612     17612     17613     17612     17614     17612     17615
     17615     17616     17615     17617     17615     17618     17618     17619
     17618     17620     17618     17621     17621     17622     17621     17623
     17621     17624     17624     17625     17624     17626     17624     17627
     17627     17628     17627     17629     17627     17630     17630     17631
     17630     17632     17630     17633     17633     17634     17633     17635
     17633     17636     17637     17638     17637     17639     17637     17640
     17637     17641     17641     17642     17641     17643     17641     17644
     17644     17645     17644     17646     17644     17650     17652     17651
     17650     17647     17647     17651     17647     17648     17647     17649
     17652     17653     17652     17654     17652     17655     17655     17656
     17655     17663     17655     17657     17663     17664     17663     17665
     17663     17666     17657     17658     17658     17660     17658     17659
     17660     17661     17660     17662     17660     17672     17672     17673
     17672     17674     17672     17675     17675     17676     17675     17677
     17675     17678     17678     17679     17678     17680     17680     17681
     17680     17682     17682     17683     17682     17684     17682     17685
     17685     17686     17685     17687     17687     17688     17687     17689
     17689     17690     17689     17691     17689     17692     17692     17693
     17692     17694     17694     17695     17694     17696     17696     17697
     17696     17698     17696     17699     17699     17700     17699     17701
     17701     17702     17701     17703     17703     17704     17703     17705
     17703     17706     17706     17707     17706     17708     17706     17709
     17709     17710     17709     17711     17709     17712     17712     17713
     17712     17714     17712     17715     17715     17716     17715     17717
     17715     17718     17666     17667     17667     17669     17667     17668
     17669     17670     17669     17671     17669     17719     17719     17720
     17719     17721     17719     17722     17722     17723     17722     17724
     17722     17725     17725     17726     17725     17727     17725     17728
     17728     17729     17728     17730     17728     17731     17731     17732
     17731     17733     17731     17734     17734     17735     17734     17736
     17734     17737     17737     17738     17737     17739     17737     17740
     17740     17741     17740     17742     17740     17743     17743     17744
     17743     17745     17743     17746     17746     17747     17746     17748
     17746     17749     17749     17750     17749     17751     17749     17752
     17752     17753     17752     17754     17752     17755     17755     17756
     17755     17757     17755     17758     17758     17759     17758     17760
     17758     17761     17761     17762     17761     17763     17761     17764
     17764     17765     17764     17766     17764     17767     17768     17772
     17768     17776     17768     17780     17772     17773     17772     17774
     17772     17775     17776     17777     17776     17778     17776     17779
     17780     17781     17780     17782     17780     17783     17768     17769
     17769     17770     17769     17771     17769     17784     17784     17785
     17784     17786     17784     17790     17791     17792     17790     17787
     17787     17791     17787     17788     17787     17789     17792     17793
     17792     17794     17792     17795     17795     17796     17795     17803
     17795     17797     17803     17804     17803     17805     17803     17806
     17797     17798     17798     17800     17798     17799     17800     17801
     17800     17802     17800     17812     17812     17813     17812     17814
     17812     17815     17815     17816     17815     17817     17815     17818
     17818     17819     17818     17820     17818     17821     17821     17822
     17821     17823     17821     17824     17824     17825     17824     17826
     17824     17827     17827     17828     17827     17829     17827     17830
     17830     17831     17830     17832     17832     17833     17832     17834
     17834     17835     17834     17836     17834     17837     17837     17838
     17837     17839     17837     17840     17840     17841     17840     17842
     17840     17843     17843     17844     17843     17845     17843     17846
     17846     17847     17846     17848     17846     17849     17849     17850
     17849     17851     17849     17852     17852     17853     17852     17854
     17852     17855     17855     17856     17855     17857     17855     17858
     17806     17807     17807     17809     17807     17808     17809     17810
     17809     17811     17809     17859     17859     17860     17859     17861
     17859     17862     17862     17863     17862     17864     17862     17865
     17865     17866     17865     17867     17865     17868     17868     17869
     17868     17870     17868     17871     17871     17872     17871     17873
     17871     17874     17874     17875     17874     17876     17874     17877
     17877     17878     17877     17879     17877     17880     17880     17881
     17880     17882     17880     17883     17883     17884     17883     17885
     17883     17886     17886     17887     17886     17888     17886     17889
     17889     17890     17889     17891     17889     17892     17892     17893
     17892     17894     17892     17895     17895     17896     17895     17897
     17895     17898     17898     17899     17898     17900     17898     17901
     17902     17903     17902     17904     17902     17905     17902     17906
     17906     17907     17906     17908     17906     17909     17909     17910
     17909     17911     17909     17915     17917     17916     17915     17912
     17912     17916     17912     17913     17912     17914     17917     17918
     17917     17919     17917     17920     17920     17921     17920     17928
     17920     17922     17928     17929     17928     17930     17928     17931
     17922     17923     17923     17925     17923     17924     17925     17926
     17925     17927     17925     17937     17937     17938     17937     17939
     17937     17940     17940     17941     17940     17942     17940     17943
     17943     17944     17943     17945     17943     17946     17946     17947
     17946     17948     17946     17949     17949     17950     17949     17951
     17949     17952     17952     17953     17952     17954     17952     17955
     17955     17956     17955     17957     17957     17958     17957     17959
     17959     17960     17959     17961     17959     17962     17962     17963
     17962     17964     17962     17965     17965     17966     17965     17967
     17965     17968     17968     17969     17968     17970     17968     17971
     17971     17972     17971     17973     17971     17974     17974     17975
     17974     17976     17974     17977     17977     17978     17977     17979
     17977     17980     17980     17981     17980     17982     17980     17983
     17931     17932     17932     17934     17932     17933     17934     17935
     17934     17936     17934     17984     17984     17985     17984     17986
     17984     17987     17987     17988     17987     17989     17987     17990
     17990     17991     17990     17992     17990     17993     17993     17994
     17993     17995     17993     17996     17996     17997     17996     17998
     17996     17999     17999     18000     17999     18001     17999     18002
     18002     18003     18002     18004     18002     18005     18005     18006
     18005     18007     18005     18008     18008     18009     18008     18010
     18008     18011     18011     18012     18011     18013     18011     18014
     18014     18015     18014     18016     18014     18017     18017     18018
     18017     18019     18017     18020     18020     18021     18020     18022
     18020     18023     18023     18024     18023     18025     18023     18026
     18026     18027     18026     18028     18026     18029     18029     18030
     18029     18031     18029     18032     18033     18035     18033     18034
     18035     18036     18033     18079     18079     18080     18079     18081
     18079     18076     18076     18077     18076     18078     18033     18037
     18037     18038     18037     18039     18037     18040     18040     18071
     18071     18076     18071     18072     18072     18073     18072     18074
     18072     18075     18040     18041     18041     18042     18041     18043
     18043     18044     18043     18045     18043     18046     18046     18047
     18046     18069     18069     18070     18069     18071     18046     18048
     18048     18049     18048     18058     18058     18063     18063     18064
     18063     18065     18063     18066     18066     18067     18066     18068
     18066     18069     18058     18059     18059     18060     18059     18061
     18059     18062     18048     18050     18050     18051     18050     18052
     18050     18053     18053     18054     18053     18055     18053     18056
     18056     18057     18056     18058     18056     18082     18082     18083
     18082     18084     18084     18085     18084     18086     18084     18087
     18082     18088     18088     18089     18088     18090     18088     18091
     18091     18092     18091     18093     18091     18094     18094     18095
     18094     18096     18094     18097     18097     18098     18097     18099
     18099     18100     18099     18101     18099     18102     18097     18103
     18103     18104     18103     18105     18103     18106     18107     18108
     18107     18112     18107     18116     18108     18109     18108     18110
     18108     18111     18112     18113     18112     18114     18112     18115
     18116     18117     18116     18118     18116     18119     18107     18120
     18120     18121     18120     18122     18120     18123     18123     18124
     18123     18125     18123     18129     18130     18131     18129     18126
     18126     18130     18126     18127     18126     18128     18131     18132
     18131     18133     18131     18134     18134     18135     18134     18142
     18134     18136     18142     18143     18142     18144     18142     18145
     18136     18137     18137     18139     18137     18138     18139     18140
     18139     18141     18139     18151     18151     18152     18151     18153
     18151     18154     18154     18155     18154     18156     18154     18157
     18157     18158     18157     18159     18157     18160     18160     18161
     18160     18162     18160     18163     18163     18164     18163     18165
     18163     18166     18166     18167     18166     18168     18166     18169
     18169     18170     18169     18171     18171     18172     18171     18173
     18173     18174     18173     18175     18173     18176     18176     18177
     18176     18178     18178     18179     18178     18180     18180     18181
     18180     18182     18180     18183     18183     18184     18183     18185
     18183     18186     18186     18187     18186     18188     18186     18189
     18189     18190     18189     18191     18189     18192     18192     18193
     18192     18194     18192     18195     18145     18146     18146     18148
     18146     18147     18148     18149     18148     18150     18148     18196
     18196     18197     18196     18198     18196     18199     18199     18200
     18199     18201     18199     18202     18202     18203     18202     18204
     18202     18205     18205     18206     18205     18207     18205     18208
     18208     18209     18208     18210     18208     18211     18211     18212
     18211     18213     18211     18214     18214     18215     18214     18216
     18214     18217     18217     18218     18217     18219     18217     18220
     18220     18221     18220     18222     18220     18223     18223     18224
     18223     18225     18223     18226     18226     18227     18226     18228
     18226     18229     18229     18230     18229     18231     18229     18232
     18232     18233     18232     18234     18232     18235     18235     18236
     18235     18237     18235     18238     18238     18239     18238     18240
     18238     18241     18241     18242     18241     18243     18241     18244
     18245     18246     18245     18247     18245     18248     18245     18249
     18249     18250     18249     18251     18249     18252     18252     18253
     18252     18254     18252     18258     18260     18259     18258     18255
     18255     18259     18255     18256     18255     18257     18260     18261
     18260     18262     18260     18263     18263     18264     18263     18271
     18263     18265     18271     18272     18271     18273     18271     18274
     18265     18266     18266     18268     18266     18267     18268     18269
     18268     18270     18268     18280     18280     18281     18280     18282
     18280     18283     18283     18284     18283     18285     18283     18286
     18286     18287     18286     18288     18286     18289     18289     18290
     18289     18291     18289     18292     18292     18293     18292     18294
     18292     18295     18295     18296     18295     18297     18295     18298
     18298     18299     18298     18300     18300     18301     18300     18302
     18302     18303     18302     18304     18302     18305     18305     18306
     18305     18307     18305     18308     18308     18309     18308     18310
     18308     18311     18311     18312     18311     18313     18311     18314
     18314     18315     18314     18316     18314     18317     18317     18318
     18317     18319     18317     18320     18320     18321     18320     18322
     18320     18323     18323     18324     18323     18325     18323     18326
     18274     18275     18275     18277     18275     18276     18277     18278
     18277     18279     18277     18327     18327     18328     18327     18329
     18327     18330     18330     18331     18330     18332     18330     18333
     18333     18334     18333     18335     18333     18336     18336     18337
     18336     18338     18336     18339     18339     18340     18339     18341
     18339     18342     18342     18343     18342     18344     18342     18345
     18345     18346     18345     18347     18345     18348     18348     18349
     18348     18350     18348     18351     18351     18352     18351     18353
     18351     18354     18354     18355     18354     18356     18354     18357
     18357     18358     18357     18359     18357     18360     18360     18361
     18360     18362     18360     18363     18363     18364     18363     18365
     18363     18366     18366     18367     18366     18368     18366     18369
     18369     18370     18369     18371     18369     18372     18372     18373
     18372     18374     18372     18375     18396     18397     18396     18392
     18396     18376     18396     18401     18376     18377     18376     18378
     18378     18379     18376     18380     18380     18381     18380     18382
     18382     18383     18380     18384     18384     18385     18384     18386
     18386     18387     18384     18388     18388     18389     18388     18392
     18392     18393     18392     18394     18394     18395     18388     18390
     18390     18391     18401     18398     18398     18402     18398     18399
     18398     18400     18402     18403     18403     18404     18403     18405
     18403     18406     18406     18407     18406     18414     18406     18408
     18414     18415     18414     18416     18414     18417     18408     18409
     18409     18411     18409     18410     18411     18412     18411     18413
     18411     18423     18423     18424     18423     18425     18423     18426
     18426     18427     18426     18428     18426     18429     18429     18430
     18429     18431     18431     18432     18431     18433     18433     18434
     18433     18435     18433     18436     18436     18437     18436     18438
     18438     18439     18438     18440     18440     18441     18440     18442
     18440     18443     18443     18444     18443     18445     18445     18446
     18445     18447     18447     18448     18447     18449     18447     18450
     18450     18451     18450     18452     18452     18453     18452     18454
     18454     18455     18454     18456     18454     18457     18457     18458
     18457     18459     18457     18460     18460     18461     18460     18462
     18460     18463     18463     18464     18463     18465     18463     18466
     18466     18467     18466     18468     18466     18469     18417     18418
     18418     18420     18418     18419     18420     18421     18420     18422
     18420     18470     18470     18471     18470     18472     18470     18473
     18473     18474     18473     18475     18473     18476     18476     18477
     18476     18478     18476     18479     18479     18480     18479     18481
     18479     18482     18482     18483     18482     18484     18482     18485
     18485     18486     18485     18487     18485     18488     18488     18489
     18488     18490     18488     18491     18491     18492     18491     18493
     18491     18494     18494     18495     18494     18496     18494     18497
     18497     18498     18497     18499     18497     18500     18500     18501
     18500     18502     18500     18503     18503     18504     18503     18505
     18503     18506     18506     18507     18506     18508     18506     18509
     18509     18510     18509     18511     18509     18512     18512     18513
     18512     18514     18512     18515     18515     18516     18515     18517
     18515     18518     18539     18540     18539     18535     18539     18519
     18539     18544     18519     18520     18519     18521     18521     18522
     18519     18523     18523     18524     18523     18525     18525     18526
     18523     18527     18527     18528     18527     18529     18529     18530
     18527     18531     18531     18532     18531     18535     18535     18536
     18535     18537     18537     18538     18531     18533     18533     18534
     18544     18541     18541     18545     18541     18542     18541     18543
     18545     18546     18546     18547     18546     18548     18546     18549
     18549     18550     18549     18557     18549     18551     18557     18558
     18557     18559     18557     18560     18551     18552     18552     18554
     18552     18553     18554     18555     18554     18556     18554     18566
     18566     18567     18566     18568     18566     18569     18569     18570
     18569     18571     18569     18572     18572     18573     18572     18574
     18574     18575     18574     18576     18576     18577     18576     18578
     18576     18579     18579     18580     18579     18581     18581     18582
     18581     18583     18583     18584     18583     18585     18583     18586
     18586     18587     18586     18588     18588     18589     18588     18590
     18590     18591     18590     18592     18590     18593     18593     18594
     18593     18595     18595     18596     18595     18597     18597     18598
     18597     18599     18597     18600     18600     18601     18600     18602
     18600     18603     18603     18604     18603     18605     18603     18606
     18606     18607     18606     18608     18606     18609     18609     18610
     18609     18611     18609     18612     18560     18561     18561     18563
     18561     18562     18563     18564     18563     18565     18563     18613
     18613     18614     18613     18615     18613     18616     18616     18617
     18616     18618     18616     18619     18619     18620     18619     18621
     18619     18622     18622     18623     18622     18624     18622     18625
     18625     18626     18625     18627     18625     18628     18628     18629
     18628     18630     18628     18631     18631     18632     18631     18633
     18631     18634     18634     18635     18634     18636     18634     18637
     18637     18638     18637     18639     18637     18640     18640     18641
     18640     18642     18640     18643     18643     18644     18643     18645
     18643     18646     18646     18647     18646     18648     18646     18649
     18649     18650     18649     18651     18649     18652     18652     18653
     18652     18654     18652     18655     18655     18656     18655     18657
     18655     18658     18658     18659     18658     18660     18658     18661
     18662     18663     18662     18664     18662     18665     18662     18666
     18666     18667     18666     18668     18666     18669     18669     18670
     18669     18671     18669     18675     18677     18676     18675     18672
     18672     18676     18672     18673     18672     18674     18677     18678
     18677     18679     18677     18680     18680     18681     18680     18688
     18680     18682     18688     18689     18688     18690     18688     18691
     18682     18683     18683     18685     18683     18684     18685     18686
     18685     18687     18685     18697     18697     18698     18697     18699
     18697     18700     18700     18701     18700     18702     18700     18703
     18703     18704     18703     18705     18703     18706     18706     18707
     18706     18708     18706     18709     18709     18710     18709     18711
     18709     18712     18712     18713     18712     18714     18712     18715
     18715     18716     18715     18717     18717     18718     18717     18719
     18719     18720     18719     18721     18719     18722     18722     18723
     18722     18724     18722     18725     18725     18726     18725     18727
     18725     18728     18728     18729     18728     18730     18728     18731
     18731     18732     18731     18733     18731     18734     18734     18735
     18734     18736     18734     18737     18737     18738     18737     18739
     18737     18740     18740     18741     18740     18742     18740     18743
     18691     18692     18692     18694     18692     18693     18694     18695
     18694     18696     18694     18744     18744     18745     18744     18746
     18744     18747     18747     18748     18747     18749     18747     18750
     18750     18751     18750     18752     18750     18753     18753     18754
     18753     18755     18753     18756     18756     18757     18756     18758
     18756     18759     18759     18760     18759     18761     18759     18762
     18762     18763     18762     18764     18762     18765     18765     18766
     18765     18767     18765     18768     18768     18769     18768     18770
     18768     18771     18771     18772     18771     18773     18771     18774
     18774     18775     18774     18776     18774     18777     18777     18778
     18777     18779     18777     18780     18780     18781     18780     18782
     18780     18783     18783     18784     18783     18785     18783     18786
     18786     18787     18786     18788     18786     18789     18789     18790
     18789     18791     18789     18792     18793     18797     18793     18801
     18793     18805     18797     18798     18797     18799     18797     18800
     18801     18802     18801     18803     18801     18804     18805     18806
     18805     18807     18805     18808     18793     18794     18794     18795
     18794     18796     18794     18809     18809     18810     18809     18811
     18809     18815     18816     18817     18815     18812     18812     18816
     18812     18813     18812     18814     18817     18818     18817     18819
     18817     18820     18820     18821     18820     18828     18820     18822
     18828     18829     18828     18830     18828     18831     18822     18823
     18823     18825     18823     18824     18825     18826     18825     18827
     18825     18837     18837     18838     18837     18839     18837     18840
     18840     18841     18840     18842     18840     18843     18843     18844
     18843     18845     18845     18846     18845     18847     18847     18848
     18847     18849     18847     18850     18850     18851     18850     18852
     18852     18853     18852     18854     18854     18855     18854     18856
     18854     18857     18857     18858     18857     18859     18859     18860
     18859     18861     18861     18862     18861     18863     18861     18864
     18864     18865     18864     18866     18866     18867     18866     18868
     18868     18869     18868     18870     18868     18871     18871     18872
     18871     18873     18871     18874     18874     18875     18874     18876
     18874     18877     18877     18878     18877     18879     18877     18880
     18880     18881     18880     18882     18880     18883     18831     18832
     18832     18834     18832     18833     18834     18835     18834     18836
     18834     18884     18884     18885     18884     18886     18884     18887
     18887     18888     18887     18889     18887     18890     18890     18891
     18890     18892     18890     18893     18893     18894     18893     18895
     18893     18896     18896     18897     18896     18898     18896     18899
     18899     18900     18899     18901     18899     18902     18902     18903
     18902     18904     18902     18905     18905     18906     18905     18907
     18905     18908     18908     18909     18908     18910     18908     18911
     18911     18912     18911     18913     18911     18914     18914     18915
     18914     18916     18914     18917     18917     18918     18917     18919
     18917     18920     18920     18921     18920     18922     18920     18923
     18923     18924     18923     18925     18923     18926     18926     18927
     18926     18928     18926     18929     18929     18930     18929     18931
     18929     18932     18933     18935     18933     18934     18935     18936
     18933     18979     18979     18980     18979     18981     18979     18976
     18976     18977     18976     18978     18933     18937     18937     18938
     18937     18939     18937     18940     18940     18971     18971     18976
     18971     18972     18972     18973     18972     18974     18972     18975
     18940     18941     18941     18942     18941     18943     18943     18944
     18943     18945     18943     18946     18946     18947     18946     18969
     18969     18970     18969     18971     18946     18948     18948     18949
     18948     18958     18958     18963     18963     18964     18963     18965
     18963     18966     18966     18967     18966     18968     18966     18969
     18958     18959     18959     18960     18959     18961     18959     18962
     18948     18950     18950     18951     18950     18952     18950     18953
     18953     18954     18953     18955     18953     18956     18956     18957
     18956     18958     18956     18982     18982     18983     18982     18984
     18984     18985     18984     18986     18984     18987     18982     18988
     18988     18989     18988     18990     18988     18991     18991     18992
     18991     18993     18991     18994     18994     18995     18994     18996
     18994     18997     18997     18998     18997     18999     18999     19000
     18999     19001     18999     19002     18997     19003     19003     19004
     19003     19005     19003     19006     19007     19008     19007     19009
     19007     19010     19007     19011     19011     19012     19011     19013
     19011     19014     19014     19015     19014     19016     19014     19020
     19022     19021     19020     19017     19017     19021     19017     19018
     19017     19019     19022     19023     19022     19024     19022     19025
     19025     19026     19025     19033     19025     19027     19033     19034
     19033     19035     19033     19036     19027     19028     19028     19030
     19028     19029     19030     19031     19030     19032     19030     19042
     19042     19043     19042     19044     19042     19045     19045     19046
     19045     19047     19045     19048     19048     19049     19048     19050
     19050     19051     19050     19052     19052     19053     19052     19054
     19052     19055     19055     19056     19055     19057     19057     19058
     19057     19059     19059     19060     19059     19061     19059     19062
     19062     19063     19062     19064     19064     19065     19064     19066
     19066     19067     19066     19068     19066     19069     19069     19070
     19069     19071     19071     19072     19071     19073     19073     19074
     19073     19075     19073     19076     19076     19077     19076     19078
     19076     19079     19079     19080     19079     19081     19079     19082
     19082     19083     19082     19084     19082     19085     19085     19086
     19085     19087     19085     19088     19036     19037     19037     19039
     19037     19038     19039     19040     19039     19041     19039     19089
     19089     19090     19089     19091     19089     19092     19092     19093
     19092     19094     19092     19095     19095     19096     19095     19097
     19095     19098     19098     19099     19098     19100     19098     19101
     19101     19102     19101     19103     19101     19104     19104     19105
     19104     19106     19104     19107     19107     19108     19107     19109
     19107     19110     19110     19111     19110     19112     19110     19113
     19113     19114     19113     19115     19113     19116     19116     19117
     19116     19118     19116     19119     19119     19120     19119     19121
     19119     19122     19122     19123     19122     19124     19122     19125
     19125     19126     19125     19127     19125     19128     19128     19129
     19128     19130     19128     19131     19131     19132     19131     19133
     19131     19134     19134     19135     19134     19136     19134     19137
     19213     19214     19213     19215     19213     19216     19213     19210
     19210     19211     19210     19212     19210     19207     19207     19208
     19207     19209     19207     19204     19204     19205     19204     19206
     19204     19201     19201     19202     19201     19203     19201     19198
     19198     19199     19198     19200     19198     19195     19195     19196
     19195     19197     19195     19192     19192     19193     19192     19194
     19192     19189     19189     19190     19189     19191     19189     19186
     19186     19187     19186     19188     19186     19183     19183     19184
     19183     19185     19183     19180     19180     19181     19180     19182
     19180     19177     19177     19178     19177     19179     19177     19175
     19175     19176     19173     19174     19173     19169     19169     19170
     19169     19171     19171     19172     19169     19167     19167     19168
     19167     19162     19162     19163     19162     19164     19162     19160
     19160     19157     19161     19157     19158     19157     19159     19157
     19161     19154     19154     19155     19154     19156     19154     19151
     19151     19152     19151     19153     19151     19138     19138     19147
     19138     19143     19138     19139     19147     19148     19147     19149
     19147     19150     19143     19144     19143     19145     19143     19146
     19139     19140     19139     19141     19139     19142     19167     19165
     19165     19166     19165     19217     19217     19219     19219     19220
     19219     19221     19219     19222     19222     19223     19222     19224
     19222     19225     19225     19226     19225     19227     19225     19228
     19228     19229     19228     19230     19228     19231     19231     19232
     19231     19233     19231     19234     19234     19235     19234     19236
     19234     19237     19237     19238     19237     19239     19237     19240
     19240     19241     19242     19243     19242     19244     19244     19245
     19244     19246     19244     19247     19247     19248     19247     19249
     19247     19250     19250     19251     19250     19252     19250     19253
     19253     19254     19253     19255     19253     19256     19256     19257
     19256     19258     19256     19259     19259     19260     19259     19261
     19259     19262     19262     19263     19262     19264     19262     19265
     19265     19266     19265     19267     19265     19268     19173     19175
     19240     19242     19217     19218     19269     19271     19269     19270
     19271     19272     19269     19315     19315     19316     19315     19317
     19315     19312     19312     19313     19312     19314     19269     19273
     19273     19274     19273     19275     19273     19276     19276     19307
     19307     19312     19307     19308     19308     19309     19308     19310
     19308     19311     19276     19277     19277     19278     19277     19279
     19279     19280     19279     19281     19279     19282     19282     19283
     19282     19305     19305     19306     19305     19307     19282     19284
     19284     19285     19284     19294     19294     19299     19299     19300
     19299     19301     19299     19302     19302     19303     19302     19304
     19302     19305     19294     19295     19295     19296     19295     19297
     19295     19298     19284     19286     19286     19287     19286     19288
     19286     19289     19289     19290     19289     19291     19289     19292
     19292     19293     19292     19294     19292     19318     19318     19319
     19318     19320     19320     19321     19320     19322     19320     19323
     19318     19324     19324     19325     19324     19326     19324     19327
     19327     19328     19327     19329     19327     19330     19330     19331
     19330     19332     19330     19333     19333     19334     19333     19335
     19335     19336     19335     19337     19335     19338     19333     19339
     19339     19340     19339     19341     19339     19342     19343     19344
     19343     19345     19343     19346     19343     19347     19347     19348
     19347     19349     19347     19350     19350     19351     19350     19352
     19350     19356     19358     19357     19356     19353     19353     19357
     19353     19354     19353     19355     19358     19359     19358     19360
     19358     19361     19361     19362     19361     19369     19361     19363
     19369     19370     19369     19371     19369     19372     19363     19364
     19364     19366     19364     19365     19366     19367     19366     19368
     19366     19378     19378     19379     19378     19380     19378     19381
     19381     19382     19381     19383     19381     19384     19384     19385
     19384     19386     19386     19387     19386     19388     19388     19389
     19388     19390     19388     19391     19391     19392     19391     19393
     19393     19394     19393     19395     19395     19396     19395     19397
     19395     19398     19398     19399     19398     19400     19400     19401
     19400     19402     19402     19403     19402     19404     19402     19405
     19405     19406     19405     19407     19407     19408     19407     19409
     19409     19410     19409     19411     19409     19412     19412     19413
     19412     19414     19412     19415     19415     19416     19415     19417
     19415     19418     19418     19419     19418     19420     19418     19421
     19421     19422     19421     19423     19421     19424     19372     19373
     19373     19375     19373     19374     19375     19376     19375     19377
     19375     19425     19425     19426     19425     19427     19425     19428
     19428     19429     19428     19430     19428     19431     19431     19432
     19431     19433     19431     19434     19434     19435     19434     19436
     19434     19437     19437     19438     19437     19439     19437     19440
     19440     19441     19440     19442     19440     19443     19443     19444
     19443     19445     19443     19446     19446     19447     19446     19448
     19446     19449     19449     19450     19449     19451     19449     19452
     19452     19453     19452     19454     19452     19455     19455     19456
     19455     19457     19455     19458     19458     19459     19458     19460
     19458     19461     19461     19462     19461     19463     19461     19464
     19464     19465     19464     19466     19464     19467     19467     19468
     19467     19469     19467     19470     19470     19471     19470     19472
     19470     19473     19474     19475     19474     19476     19474     19477
     19474     19478     19478     19479     19478     19480     19478     19481
     19481     19482     19481     19483     19481     19487     19489     19488
     19487     19484     19484     19488     19484     19485     19484     19486
     19489     19490     19489     19491     19489     19492     19492     19493
     19492     19500     19492     19494     19500     19501     19500     19502
     19500     19503     19494     19495     19495     19497     19495     19496
     19497     19498     19497     19499     19497     19509     19509     19510
     19509     19511     19509     19512     19512     19513     19512     19514
     19512     19515     19515     19516     19515     19517     19515     19518
     19518     19519     19518     19520     19518     19521     19521     19522
     19521     19523     19521     19524     19524     19525     19524     19526
     19524     19527     19527     19528     19527     19529     19529     19530
     19529     19531     19531     19532     19531     19533     19531     19534
     19534     19535     19534     19536     19534     19537     19537     19538
     19537     19539     19537     19540     19540     19541     19540     19542
     19540     19543     19543     19544     19543     19545     19543     19546
     19546     19547     19546     19548     19546     19549     19549     19550
     19549     19551     19549     19552     19552     19553     19552     19554
     19552     19555     19503     19504     19504     19506     19504     19505
     19506     19507     19506     19508     19506     19556     19556     19557
     19556     19558     19556     19559     19559     19560     19559     19561
     19559     19562     19562     19563     19562     19564     19562     19565
     19565     19566     19565     19567     19565     19568     19568     19569
     19568     19570     19568     19571     19571     19572     19571     19573
     19571     19574     19574     19575     19574     19576     19574     19577
     19577     19578     19577     19579     19577     19580     19580     19581
     19580     19582     19580     19583     19583     19584     19583     19585
     19583     19586     19586     19587     19586     19588     19586     19589
     19589     19590     19589     19591     19589     19592     19592     19593
     19592     19594     19592     19595     19595     19596     19595     19597
     19595     19598     19598     19599     19598     19600     19598     19601
     19601     19602     19601     19603     19601     19604     19605     19606
     19605     19610     19605     19614     19606     19607     19606     19608
     19606     19609     19610     19611     19610     19612     19610     19613
     19614     19615     19614     19616     19614     19617     19605     19618
     19618     19619     19618     19620     19618     19621     19621     19622
     19621     19623     19621     19627     19628     19629     19627     19624
     19624     19628     19624     19625     19624     19626     19629     19630
     19629     19631     19629     19632     19632     19633     19632     19640
     19632     19634     19640     19641     19640     19642     19640     19643
     19634     19635     19635     19637     19635     19636     19637     19638
     19637     19639     19637     19649     19649     19650     19649     19651
     19649     19652     19652     19653     19652     19654     19652     19655
     19655     19656     19655     19657     19655     19658     19658     19659
     19658     19660     19658     19661     19661     19662     19661     19663
     19661     19664     19664     19665     19664     19666     19664     19667
     19667     19668     19667     19669     19669     19670     19669     19671
     19671     19672     19671     19673     19671     19674     19674     19675
     19674     19676     19676     19677     19676     19678     19678     19679
     19678     19680     19678     19681     19681     19682     19681     19683
     19681     19684     19684     19685     19684     19686     19684     19687
     19687     19688     19687     19689     19687     19690     19690     19691
     19690     19692     19690     19693     19643     19644     19644     19646
     19644     19645     19646     19647     19646     19648     19646     19694
     19694     19695     19694     19696     19694     19697     19697     19698
     19697     19699     19697     19700     19700     19701     19700     19702
     19700     19703     19703     19704     19703     19705     19703     19706
     19706     19707     19706     19708     19706     19709     19709     19710
     19709     19711     19709     19712     19712     19713     19712     19714
     19712     19715     19715     19716     19715     19717     19715     19718
     19718     19719     19718     19720     19718     19721     19721     19722
     19721     19723     19721     19724     19724     19725     19724     19726
     19724     19727     19727     19728     19727     19729     19727     19730
     19730     19731     19730     19732     19730     19733     19733     19734
     19733     19735     19733     19736     19736     19737     19736     19738
     19736     19739     19739     19740     19739     19741     19739     19742
     19743     19747     19743     19751     19743     19755     19747     19748
     19747     19749     19747     19750     19751     19752     19751     19753
     19751     19754     19755     19756     19755     19757     19755     19758
     19743     19744     19744     19745     19744     19746     19744     19759
     19759     19760     19759     19761     19759     19765     19766     19767
     19765     19762     19762     19766     19762     19763     19762     19764
     19767     19768     19767     19769     19767     19770     19770     19771
     19770     19778     19770     19772     19778     19779     19778     19780
     19778     19781     19772     19773     19773     19775     19773     19774
     19775     19776     19775     19777     19775     19787     19787     19788
     19787     19789     19787     19790     19790     19791     19790     19792
     19790     19793     19793     19794     19793     19795     19795     19796
     19795     19797     19797     19798     19797     19799     19797     19800
     19800     19801     19800     19802     19802     19803     19802     19804
     19804     19805     19804     19806     19804     19807     19807     19808
     19807     19809     19809     19810     19809     19811     19811     19812
     19811     19813     19811     19814     19814     19815     19814     19816
     19816     19817     19816     19818     19818     19819     19818     19820
     19818     19821     19821     19822     19821     19823     19821     19824
     19824     19825     19824     19826     19824     19827     19827     19828
     19827     19829     19827     19830     19830     19831     19830     19832
     19830     19833     19781     19782     19782     19784     19782     19783
     19784     19785     19784     19786     19784     19834     19834     19835
     19834     19836     19834     19837     19837     19838     19837     19839
     19837     19840     19840     19841     19840     19842     19840     19843
     19843     19844     19843     19845     19843     19846     19846     19847
     19846     19848     19846     19849     19849     19850     19849     19851
     19849     19852     19852     19853     19852     19854     19852     19855
     19855     19856     19855     19857     19855     19858     19858     19859
     19858     19860     19858     19861     19861     19862     19861     19863
     19861     19864     19864     19865     19864     19866     19864     19867
     19867     19868     19867     19869     19867     19870     19870     19871
     19870     19872     19870     19873     19873     19874     19873     19875
     19873     19876     19876     19877     19876     19878     19876     19879
     19879     19880     19879     19881     19879     19882     19883     19884
     19883     19888     19883     19892     19884     19885     19884     19886
     19884     19887     19888     19889     19888     19890     19888     19891
     19892     19893     19892     19894     19892     19895     19883     19896
     19896     19897     19896     19898     19896     19899     19899     19900
     19899     19901     19899     19905     19906     19907     19905     19902
     19902     19906     19902     19903     19902     19904     19907     19908
     19907     19909     19907     19910     19910     19911     19910     19918
     19910     19912     19918     19919     19918     19920     19918     19921
     19912     19913     19913     19915     19913     19914     19915     19916
     19915     19917     19915     19927     19927     19928     19927     19929
     19927     19930     19930     19931     19930     19932     19930     19933
     19933     19934     19933     19935     19933     19936     19936     19937
     19936     19938     19936     19939     19939     19940     19939     19941
     19939     19942     19942     19943     19942     19944     19942     19945
     19945     19946     19945     19947     19947     19948     19947     19949
     19949     19950     19949     19951     19949     19952     19952     19953
     19952     19954     19954     19955     19954     19956     19956     19957
     19956     19958     19956     19959     19959     19960     19959     19961
     19959     19962     19962     19963     19962     19964     19962     19965
     19965     19966     19965     19967     19965     19968     19968     19969
     19968     19970     19968     19971     19921     19922     19922     19924
     19922     19923     19924     19925     19924     19926     19924     19972
     19972     19973     19972     19974     19972     19975     19975     19976
     19975     19977     19975     19978     19978     19979     19978     19980
     19978     19981     19981     19982     19981     19983     19981     19984
     19984     19985     19984     19986     19984     19987     19987     19988
     19987     19989     19987     19990     19990     19991     19990     19992
     19990     19993     19993     19994     19993     19995     19993     19996
     19996     19997     19996     19998     19996     19999     19999     20000
     19999     20001     19999     20002     20002     20003     20002     20004
     20002     20005     20005     20006     20005     20007     20005     20008
     20008     20009     20008     20010     20008     20011     20011     20012
     20011     20013     20011     20014     20014     20015     20014     20016
     20014     20017     20017     20018     20017     20019     20017     20020
     20021     20023     20021     20022     20023     20024     20021     20067
     20067     20068     20067     20069     20067     20064     20064     20065
     20064     20066     20021     20025     20025     20026     20025     20027
     20025     20028     20028     20059     20059     20064     20059     20060
     20060     20061     20060     20062     20060     20063     20028     20029
     20029     20030     20029     20031     20031     20032     20031     20033
     20031     20034     20034     20035     20034     20057     20057     20058
     20057     20059     20034     20036     20036     20037     20036     20046
     20046     20051     20051     20052     20051     20053     20051     20054
     20054     20055     20054     20056     20054     20057     20046     20047
     20047     20048     20047     20049     20047     20050     20036     20038
     20038     20039     20038     20040     20038     20041     20041     20042
     20041     20043     20041     20044     20044     20045     20044     20046
     20044     20070     20070     20071     20070     20072     20072     20073
     20072     20074     20072     20075     20070     20076     20076     20077
     20076     20078     20076     20079     20079     20080     20079     20081
     20079     20082     20082     20083     20082     20084     20082     20085
     20085     20086     20085     20087     20087     20088     20087     20089
     20087     20090     20085     20091     20091     20092     20091     20093
     20091     20094     20095     20097     20095     20096     20097     20098
     20095     20141     20141     20142     20141     20143     20141     20138
     20138     20139     20138     20140     20095     20099     20099     20100
     20099     20101     20099     20102     20102     20133     20133     20138
     20133     20134     20134     20135     20134     20136     20134     20137
     20102     20103     20103     20104     20103     20105     20105     20106
     20105     20107     20105     20108     20108     20109     20108     20131
     20131     20132     20131     20133     20108     20110     20110     20111
     20110     20120     20120     20125     20125     20126     20125     20127
     20125     20128     20128     20129     20128     20130     20128     20131
     20120     20121     20121     20122     20121     20123     20121     20124
     20110     20112     20112     20113     20112     20114     20112     20115
     20115     20116     20115     20117     20115     20118     20118     20119
     20118     20120     20118     20144     20144     20145     20144     20146
     20146     20147     20146     20148     20146     20149     20144     20150
     20150     20151     20150     20152     20150     20153     20153     20154
     20153     20155     20153     20156     20156     20157     20156     20158
     20156     20159     20159     20160     20159     20161     20161     20162
     20161     20163     20161     20164     20159     20165     20165     20166
     20165     20167     20165     20168     20169     20170     20169     20171
     20169     20172     20169     20173     20173     20174     20173     20175
     20173     20176     20176     20177     20176     20178     20176     20182
     20184     20183     20182     20179     20179     20183     20179     20180
     20179     20181     20184     20185     20184     20186     20184     20187
     20187     20188     20187     20195     20187     20189     20195     20196
     20195     20197     20195     20198     20189     20190     20190     20192
     20190     20191     20192     20193     20192     20194     20192     20204
     20204     20205     20204     20206     20204     20207     20207     20208
     20207     20209     20207     20210     20210     20211     20210     20212
     20212     20213     20212     20214     20214     20215     20214     20216
     20214     20217     20217     20218     20217     20219     20219     20220
     20219     20221     20221     20222     20221     20223     20221     20224
     20224     20225     20224     20226     20226     20227     20226     20228
     20228     20229     20228     20230     20228     20231     20231     20232
     20231     20233     20233     20234     20233     20235     20235     20236
     20235     20237     20235     20238     20238     20239     20238     20240
     20238     20241     20241     20242     20241     20243     20241     20244
     20244     20245     20244     20246     20244     20247     20247     20248
     20247     20249     20247     20250     20198     20199     20199     20201
     20199     20200     20201     20202     20201     20203     20201     20251
     20251     20252     20251     20253     20251     20254     20254     20255
     20254     20256     20254     20257     20257     20258     20257     20259
     20257     20260     20260     20261     20260     20262     20260     20263
     20263     20264     20263     20265     20263     20266     20266     20267
     20266     20268     20266     20269     20269     20270     20269     20271
     20269     20272     20272     20273     20272     20274     20272     20275
     20275     20276     20275     20277     20275     20278     20278     20279
     20278     20280     20278     20281     20281     20282     20281     20283
     20281     20284     20284     20285     20284     20286     20284     20287
     20287     20288     20287     20289     20287     20290     20290     20291
     20290     20292     20290     20293     20293     20294     20293     20295
     20293     20296     20296     20297     20296     20298     20296     20299
     20300     20302     20300     20301     20302     20303     20300     20346
     20346     20347     20346     20348     20346     20343     20343     20344
     20343     20345     20300     20304     20304     20305     20304     20306
     20304     20307     20307     20338     20338     20343     20338     20339
     20339     20340     20339     20341     20339     20342     20307     20308
     20308     20309     20308     20310     20310     20311     20310     20312
     20310     20313     20313     20314     20313     20336     20336     20337
     20336     20338     20313     20315     20315     20316     20315     20325
     20325     20330     20330     20331     20330     20332     20330     20333
     20333     20334     20333     20335     20333     20336     20325     20326
     20326     20327     20326     20328     20326     20329     20315     20317
     20317     20318     20317     20319     20317     20320     20320     20321
     20320     20322     20320     20323     20323     20324     20323     20325
     20323     20349     20349     20350     20349     20351     20351     20352
     20351     20353     20351     20354     20349     20355     20355     20356
     20355     20357     20355     20358     20358     20359     20358     20360
     20358     20361     20361     20362     20361     20363     20361     20364
     20364     20365     20364     20366     20366     20367     20366     20368
     20366     20369     20364     20370     20370     20371     20370     20372
     20370     20373     20449     20450     20449     20451     20449     20452
     20449     20446     20446     20447     20446     20448     20446     20443
     20443     20444     20443     20445     20443     20440     20440     20441
     20440     20442     20440     20437     20437     20438     20437     20439
     20437     20434     20434     20435     20434     20436     20434     20431
     20431     20432     20431     20433     20431     20428     20428     20429
     20428     20430     20428     20425     20425     20426     20425     20427
     20425     20422     20422     20423     20422     20424     20422     20419
     20419     20420     20419     20421     20419     20416     20416     20417
     20416     20418     20416     20413     20413     20414     20413     20415
     20413     20411     20411     20412     20409     20410     20409     20405
     20405     20406     20405     20407     20407     20408     20405     20403
     20403     20404     20403     20398     20398     20399     20398     20400
     20398     20396     20396     20393     20397     20393     20394     20393
     20395     20393     20397     20390     20390     20391     20390     20392
     20390     20387     20387     20388     20387     20389     20387     20374
     20374     20383     20374     20379     20374     20375     20383     20384
     20383     20385     20383     20386     20379     20380     20379     20381
     20379     20382     20375     20376     20375     20377     20375     20378
     20403     20401     20401     20402     20401     20453     20453     20455
     20455     20456     20455     20457     20455     20458     20458     20459
     20458     20460     20458     20461     20461     20462     20461     20463
     20461     20464     20464     20465     20464     20466     20464     20467
     20467     20468     20467     20469     20467     20470     20470     20471
     20470     20472     20470     20473     20473     20474     20473     20475
     20473     20476     20476     20477     20478     20479     20478     20480
     20480     20481     20480     20482     20480     20483     20483     20484
     20483     20485     20483     20486     20486     20487     20486     20488
     20486     20489     20489     20490     20489     20491     20489     20492
     20492     20493     20492     20494     20492     20495     20495     20496
     20495     20497     20495     20498     20498     20499     20498     20500
     20498     20501     20501     20502     20501     20503     20501     20504
     20409     20411     20476     20478     20453     20454     20580     20581
     20580     20582     20580     20583     20580     20577     20577     20578
     20577     20579     20577     20574     20574     20575     20574     20576
     20574     20571     20571     20572     20571     20573     20571     20568
     20568     20569     20568     20570     20568     20565     20565     20566
     20565     20567     20565     20562     20562     20563     20562     20564
     20562     20559     20559     20560     20559     20561     20559     20556
     20556     20557     20556     20558     20556     20553     20553     20554
     20553     20555     20553     20550     20550     20551     20550     20552
     20550     20547     20547     20548     20547     20549     20547     20544
     20544     20545     20544     20546     20544     20542     20542     20543
     20540     20541     20540     20536     20536     20537     20536     20538
     20538     20539     20536     20534     20534     20535     20534     20529
     20529     20530     20529     20531     20529     20527     20527     20524
     20528     20524     20525     20524     20526     20524     20528     20521
     20521     20522     20521     20523     20521     20518     20518     20519
     20518     20520     20518     20505     20505     20514     20505     20510
     20505     20506     20514     20515     20514     20516     20514     20517
     20510     20511     20510     20512     20510     20513     20506     20507
     20506     20508     20506     20509     20534     20532     20532     20533
     20532     20584     20584     20586     20586     20587     20586     20588
     20586     20589     20589     20590     20589     20591     20589     20592
     20592     20593     20592     20594     20592     20595     20595     20596
     20595     20597     20595     20598     20598     20599     20598     20600
     20598     20601     20601     20602     20601     20603     20601     20604
     20604     20605     20604     20606     20604     20607     20607     20608
     20609     20610     20609     20611     20611     20612     20611     20613
     20611     20614     20614     20615     20614     20616     20614     20617
     20617     20618     20617     20619     20617     20620     20620     20621
     20620     20622     20620     20623     20623     20624     20623     20625
     20623     20626     20626     20627     20626     20628     20626     20629
     20629     20630     20629     20631     20629     20632     20632     20633
     20632     20634     20632     20635     20540     20542     20607     20609
     20584     20585     20636     20638     20636     20637     20638     20639
     20636     20682     20682     20683     20682     20684     20682     20679
     20679     20680     20679     20681     20636     20640     20640     20641
     20640     20642     20640     20643     20643     20674     20674     20679
     20674     20675     20675     20676     20675     20677     20675     20678
     20643     20644     20644     20645     20644     20646     20646     20647
     20646     20648     20646     20649     20649     20650     20649     20672
     20672     20673     20672     20674     20649     20651     20651     20652
     20651     20661     20661     20666     20666     20667     20666     20668
     20666     20669     20669     20670     20669     20671     20669     20672
     20661     20662     20662     20663     20662     20664     20662     20665
     20651     20653     20653     20654     20653     20655     20653     20656
     20656     20657     20656     20658     20656     20659     20659     20660
     20659     20661     20659     20685     20685     20686     20685     20687
     20687     20688     20687     20689     20687     20690     20685     20691
     20691     20692     20691     20693     20691     20694     20694     20695
     20694     20696     20694     20697     20697     20698     20697     20699
     20697     20700     20700     20701     20700     20702     20702     20703
     20702     20704     20702     20705     20700     20706     20706     20707
     20706     20708     20706     20709     20710     20712     20710     20711
     20712     20713     20710     20756     20756     20757     20756     20758
     20756     20753     20753     20754     20753     20755     20710     20714
     20714     20715     20714     20716     20714     20717     20717     20748
     20748     20753     20748     20749     20749     20750     20749     20751
     20749     20752     20717     20718     20718     20719     20718     20720
     20720     20721     20720     20722     20720     20723     20723     20724
     20723     20746     20746     20747     20746     20748     20723     20725
     20725     20726     20725     20735     20735     20740     20740     20741
     20740     20742     20740     20743     20743     20744     20743     20745
     20743     20746     20735     20736     20736     20737     20736     20738
     20736     20739     20725     20727     20727     20728     20727     20729
     20727     20730     20730     20731     20730     20732     20730     20733
     20733     20734     20733     20735     20733     20759     20759     20760
     20759     20761     20761     20762     20761     20763     20761     20764
     20759     20765     20765     20766     20765     20767     20765     20768
     20768     20769     20768     20770     20768     20771     20771     20772
     20771     20773     20771     20774     20774     20775     20774     20776
     20776     20777     20776     20778     20776     20779     20774     20780
     20780     20781     20780     20782     20780     20783     20784     20785
     20784     20786     20784     20787     20784     20788     20788     20789
     20788     20790     20788     20791     20791     20792     20791     20793
     20791     20797     20799     20798     20797     20794     20794     20798
     20794     20795     20794     20796     20799     20800     20799     20801
     20799     20802     20802     20803     20802     20810     20802     20804
     20810     20811     20810     20812     20810     20813     20804     20805
     20805     20807     20805     20806     20807     20808     20807     20809
     20807     20819     20819     20820     20819     20821     20819     20822
     20822     20823     20822     20824     20822     20825     20825     20826
     20825     20827     20827     20828     20827     20829     20829     20830
     20829     20831     20829     20832     20832     20833     20832     20834
     20834     20835     20834     20836     20836     20837     20836     20838
     20836     20839     20839     20840     20839     20841     20841     20842
     20841     20843     20843     20844     20843     20845     20843     20846
     20846     20847     20846     20848     20848     20849     20848     20850
     20850     20851     20850     20852     20850     20853     20853     20854
     20853     20855     20853     20856     20856     20857     20856     20858
     20856     20859     20859     20860     20859     20861     20859     20862
     20862     20863     20862     20864     20862     20865     20813     20814
     20814     20816     20814     20815     20816     20817     20816     20818
     20816     20866     20866     20867     20866     20868     20866     20869
     20869     20870     20869     20871     20869     20872     20872     20873
     20872     20874     20872     20875     20875     20876     20875     20877
     20875     20878     20878     20879     20878     20880     20878     20881
     20881     20882     20881     20883     20881     20884     20884     20885
     20884     20886     20884     20887     20887     20888     20887     20889
     20887     20890     20890     20891     20890     20892     20890     20893
     20893     20894     20893     20895     20893     20896     20896     20897
     20896     20898     20896     20899     20899     20900     20899     20901
     20899     20902     20902     20903     20902     20904     20902     20905
     20905     20906     20905     20907     20905     20908     20908     20909
     20908     20910     20908     20911     20911     20912     20911     20913
     20911     20914     20915     20916     20915     20920     20915     20924
     20916     20917     20916     20918     20916     20919     20920     20921
     20920     20922     20920     20923     20924     20925     20924     20926
     20924     20927     20915     20928     20928     20929     20928     20930
     20928     20931     20931     20932     20931     20933     20931     20937
     20938     20939     20937     20934     20934     20938     20934     20935
     20934     20936     20939     20940     20939     20941     20939     20942
     20942     20943     20942     20950     20942     20944     20950     20951
     20950     20952     20950     20953     20944     20945     20945     20947
     20945     20946     20947     20948     20947     20949     20947     20959
     20959     20960     20959     20961     20959     20962     20962     20963
     20962     20964     20962     20965     20965     20966     20965     20967
     20965     20968     20968     20969     20968     20970     20968     20971
     20971     20972     20971     20973     20971     20974     20974     20975
     20974     20976     20974     20977     20977     20978     20977     20979
     20979     20980     20979     20981     20981     20982     20981     20983
     20981     20984     20984     20985     20984     20986     20986     20987
     20986     20988     20988     20989     20988     20990     20988     20991
     20991     20992     20991     20993     20991     20994     20994     20995
     20994     20996     20994     20997     20997     20998     20997     20999
     20997     21000     21000     21001     21000     21002     21000     21003
     20953     20954     20954     20956     20954     20955     20956     20957
     20956     20958     20956     21004     21004     21005     21004     21006
     21004     21007     21007     21008     21007     21009     21007     21010
     21010     21011     21010     21012     21010     21013     21013     21014
     21013     21015     21013     21016     21016     21017     21016     21018
     21016     21019     21019     21020     21019     21021     21019     21022
     21022     21023     21022     21024     21022     21025     21025     21026
     21025     21027     21025     21028     21028     21029     21028     21030
     21028     21031     21031     21032     21031     21033     21031     21034
     21034     21035     21034     21036     21034     21037     21037     21038
     21037     21039     21037     21040     21040     21041     21040     21042
     21040     21043     21043     21044     21043     21045     21043     21046
     21046     21047     21046     21048     21046     21049     21049     21050
     21049     21051     21049     21052     21128     21129     21128     21130
     21128     21131     21128     21125     21125     21126     21125     21127
     21125     21122     21122     21123     21122     21124     21122     21119
     21119     21120     21119     21121     21119     21116     21116     21117
     21116     21118     21116     21113     21113     21114     21113     21115
     21113     21110     21110     21111     21110     21112     21110     21107
     21107     21108     21107     21109     21107     21104     21104     21105
     21104     21106     21104     21101     21101     21102     21101     21103
     21101     21098     21098     21099     21098     21100     21098     21095
     21095     21096     21095     21097     21095     21092     21092     21093
     21092     21094     21092     21090     21090     21091     21088     21089
     21088     21084     21084     21085     21084     21086     21086     21087
     21084     21082     21082     21083     21082     21077     21077     21078
     21077     21079     21077     21075     21075     21072     21076     21072
     21073     21072     21074     21072     21076     21069     21069     21070
     21069     21071     21069     21066     21066     21067     21066     21068
     21066     21053     21053     21062     21053     21058     21053     21054
     21062     21063     21062     21064     21062     21065     21058     21059
     21058     21060     21058     21061     21054     21055     21054     21056
     21054     21057     21082     21080     21080     21081     21080     21132
     21132     21134     21134     21135     21134     21136     21134     21137
     21137     21138     21137     21139     21137     21140     21140     21141
     21140     21142     21140     21143     21143     21144     21143     21145
     21143     21146     21146     21147     21146     21148     21146     21149
     21149     21150     21149     21151     21149     21152     21152     21153
     21152     21154     21152     21155     21155     21156     21157     21158
     21157     21159     21159     21160     21159     21161     21159     21162
     21162     21163     21162     21164     21162     21165     21165     21166
     21165     21167     21165     21168     21168     21169     21168     21170
     21168     21171     21171     21172     21171     21173     21171     21174
     21174     21175     21174     21176     21174     21177     21177     21178
     21177     21179     21177     21180     21180     21181     21180     21182
     21180     21183     21088     21090     21155     21157     21132     21133
     21184     21186     21184     21185     21186     21187     21184     21230
     21230     21231     21230     21232     21230     21227     21227     21228
     21227     21229     21184     21188     21188     21189     21188     21190
     21188     21191     21191     21222     21222     21227     21222     21223
     21223     21224     21223     21225     21223     21226     21191     21192
     21192     21193     21192     21194     21194     21195     21194     21196
     21194     21197     21197     21198     21197     21220     21220     21221
     21220     21222     21197     21199     21199     21200     21199     21209
     21209     21214     21214     21215     21214     21216     21214     21217
     21217     21218     21217     21219     21217     21220     21209     21210
     21210     21211     21210     21212     21210     21213     21199     21201
     21201     21202     21201     21203     21201     21204     21204     21205
     21204     21206     21204     21207     21207     21208     21207     21209
     21207     21233     21233     21234     21233     21235     21235     21236
     21235     21237     21235     21238     21233     21239     21239     21240
     21239     21241     21239     21242     21242     21243     21242     21244
     21242     21245     21245     21246     21245     21247     21245     21248
     21248     21249     21248     21250     21250     21251     21250     21252
     21250     21253     21248     21254     21254     21255     21254     21256
     21254     21257     21258     21259     21258     21260     21258     21261
     21258     21262     21266     21264     21264     21262     21264     21265
     21262     21263     21262     21267     21275     21274     21267     21268
     21267     21269     21267     21273     21273     21270     21270     21274
     21270     21271     21270     21272     21275     21276     21275     21277
     21275     21278     21278     21279     21278     21286     21278     21280
     21286     21287     21286     21288     21286     21289     21280     21281
     21281     21283     21281     21282     21283     21284     21283     21285
     21283     21295     21295     21296     21295     21297     21295     21298
     21298     21299     21298     21300     21298     21301     21301     21302
     21301     21303     21303     21304     21303     21305     21305     21306
     21305     21307     21305     21308     21308     21309     21308     21310
     21310     21311     21310     21312     21312     21313     21312     21314
     21312     21315     21315     21316     21315     21317     21317     21318
     21317     21319     21319     21320     21319     21321     21319     21322
     21322     21323     21322     21324     21324     21325     21324     21326
     21326     21327     21326     21328     21326     21329     21329     21330
     21329     21331     21329     21332     21332     21333     21332     21334
     21332     21335     21335     21336     21335     21337     21335     21338
     21338     21339     21338     21340     21338     21341     21289     21290
     21290     21292     21290     21291     21292     21293     21292     21294
     21292     21342     21342     21343     21342     21344     21342     21345
     21345     21346     21345     21347     21345     21348     21348     21349
     21348     21350     21348     21351     21351     21352     21351     21353
     21351     21354     21354     21355     21354     21356     21354     21357
     21357     21358     21357     21359     21357     21360     21360     21361
     21360     21362     21360     21363     21363     21364     21363     21365
     21363     21366     21366     21367     21366     21368     21366     21369
     21369     21370     21369     21371     21369     21372     21372     21373
     21372     21374     21372     21375     21375     21376     21375     21377
     21375     21378     21378     21379     21378     21380     21378     21381
     21381     21382     21381     21383     21381     21384     21384     21385
     21384     21386     21384     21387     21387     21388     21387     21389
     21387     21390     21391     21392     21391     21393     21391     21394
     21391     21395     21399     21397     21397     21395     21397     21398
     21395     21396     21395     21400     21408     21407     21400     21401
     21400     21402     21400     21406     21406     21403     21403     21407
     21403     21404     21403     21405     21408     21409     21408     21410
     21408     21411     21411     21412     21411     21419     21411     21413
     21419     21420     21419     21421     21419     21422     21413     21414
     21414     21416     21414     21415     21416     21417     21416     21418
     21416     21428     21428     21429     21428     21430     21428     21431
     21431     21432     21431     21433     21431     21434     21434     21435
     21434     21436     21436     21437     21436     21438     21438     21439
     21438     21440     21438     21441     21441     21442     21441     21443
     21443     21444     21443     21445     21445     21446     21445     21447
     21445     21448     21448     21449     21448     21450     21450     21451
     21450     21452     21452     21453     21452     21454     21452     21455
     21455     21456     21455     21457     21457     21458     21457     21459
     21459     21460     21459     21461     21459     21462     21462     21463
     21462     21464     21462     21465     21465     21466     21465     21467
     21465     21468     21468     21469     21468     21470     21468     21471
     21471     21472     21471     21473     21471     21474     21422     21423
     21423     21425     21423     21424     21425     21426     21425     21427
     21425     21475     21475     21476     21475     21477     21475     21478
     21478     21479     21478     21480     21478     21481     21481     21482
     21481     21483     21481     21484     21484     21485     21484     21486
     21484     21487     21487     21488     21487     21489     21487     21490
     21490     21491     21490     21492     21490     21493     21493     21494
     21493     21495     21493     21496     21496     21497     21496     21498
     21496     21499     21499     21500     21499     21501     21499     21502
     21502     21503     21502     21504     21502     21505     21505     21506
     21505     21507     21505     21508     21508     21509     21508     21510
     21508     21511     21511     21512     21511     21513     21511     21514
     21514     21515     21514     21516     21514     21517     21517     21518
     21517     21519     21517     21520     21520     21521     21520     21522
     21520     21523     21524     21525     21524     21526     21524     21527
     21524     21528     21528     21529     21528     21530     21528     21531
     21531     21532     21531     21533     21531     21537     21539     21538
     21537     21534     21534     21538     21534     21535     21534     21536
     21539     21540     21539     21541     21539     21542     21542     21543
     21542     21550     21542     21544     21550     21551     21550     21552
     21550     21553     21544     21545     21545     21547     21545     21546
     21547     21548     21547     21549     21547     21559     21559     21560
     21559     21561     21559     21562     21562     21563     21562     21564
     21562     21565     21565     21566     21565     21567     21567     21568
     21567     21569     21569     21570     21569     21571     21569     21572
     21572     21573     21572     21574     21574     21575     21574     21576
     21576     21577     21576     21578     21576     21579     21579     21580
     21579     21581     21581     21582     21581     21583     21583     21584
     21583     21585     21583     21586     21586     21587     21586     21588
     21588     21589     21588     21590     21590     21591     21590     21592
     21590     21593     21593     21594     21593     21595     21593     21596
     21596     21597     21596     21598     21596     21599     21599     21600
     21599     21601     21599     21602     21602     21603     21602     21604
     21602     21605     21553     21554     21554     21556     21554     21555
     21556     21557     21556     21558     21556     21606     21606     21607
     21606     21608     21606     21609     21609     21610     21609     21611
     21609     21612     21612     21613     21612     21614     21612     21615
     21615     21616     21615     21617     21615     21618     21618     21619
     21618     21620     21618     21621     21621     21622     21621     21623
     21621     21624     21624     21625     21624     21626     21624     21627
     21627     21628     21627     21629     21627     21630     21630     21631
     21630     21632     21630     21633     21633     21634     21633     21635
     21633     21636     21636     21637     21636     21638     21636     21639
     21639     21640     21639     21641     21639     21642     21642     21643
     21642     21644     21642     21645     21645     21646     21645     21647
     21645     21648     21648     21649     21648     21650     21648     21651
     21651     21652     21651     21653     21651     21654     21730     21731
     21730     21732     21730     21733     21730     21727     21727     21728
     21727     21729     21727     21724     21724     21725     21724     21726
     21724     21721     21721     21722     21721     21723     21721     21718
     21718     21719     21718     21720     21718     21715     21715     21716
     21715     21717     21715     21712     21712     21713     21712     21714
     21712     21709     21709     21710     21709     21711     21709     21706
     21706     21707     21706     21708     21706     21703     21703     21704
     21703     21705     21703     21700     21700     21701     21700     21702
     21700     21697     21697     21698     21697     21699     21697     21694
     21694     21695     21694     21696     21694     21692     21692     21693
     21690     21691     21690     21686     21686     21687     21686     21688
     21688     21689     21686     21684     21684     21685     21684     21679
     21679     21680     21679     21681     21679     21677     21677     21674
     21678     21674     21675     21674     21676     21674     21678     21671
     21671     21672     21671     21673     21671     21668     21668     21669
     21668     21670     21668     21655     21655     21664     21655     21660
     21655     21656     21664     21665     21664     21666     21664     21667
     21660     21661     21660     21662     21660     21663     21656     21657
     21656     21658     21656     21659     21684     21682     21682     21683
     21682     21734     21734     21736     21736     21737     21736     21738
     21736     21739     21739     21740     21739     21741     21739     21742
     21742     21743     21742     21744     21742     21745     21745     21746
     21745     21747     21745     21748     21748     21749     21748     21750
     21748     21751     21751     21752     21751     21753     21751     21754
     21754     21755     21754     21756     21754     21757     21757     21758
     21759     21760     21759     21761     21761     21762     21761     21763
     21761     21764     21764     21765     21764     21766     21764     21767
     21767     21768     21767     21769     21767     21770     21770     21771
     21770     21772     21770     21773     21773     21774     21773     21775
     21773     21776     21776     21777     21776     21778     21776     21779
     21779     21780     21779     21781     21779     21782     21782     21783
     21782     21784     21782     21785     21690     21692     21757     21759
     21734     21735     21861     21862     21861     21863     21861     21864
     21861     21858     21858     21859     21858     21860     21858     21855
     21855     21856     21855     21857     21855     21852     21852     21853
     21852     21854     21852     21849     21849     21850     21849     21851
     21849     21846     21846     21847     21846     21848     21846     21843
     21843     21844     21843     21845     21843     21840     21840     21841
     21840     21842     21840     21837     21837     21838     21837     21839
     21837     21834     21834     21835     21834     21836     21834     21831
     21831     21832     21831     21833     21831     21828     21828     21829
     21828     21830     21828     21825     21825     21826     21825     21827
     21825     21823     21823     21824     21821     21822     21821     21817
     21817     21818     21817     21819     21819     21820     21817     21815
     21815     21816     21815     21810     21810     21811     21810     21812
     21810     21808     21808     21805     21809     21805     21806     21805
     21807     21805     21809     21802     21802     21803     21802     21804
     21802     21799     21799     21800     21799     21801     21799     21786
     21786     21795     21786     21791     21786     21787     21795     21796
     21795     21797     21795     21798     21791     21792     21791     21793
     21791     21794     21787     21788     21787     21789     21787     21790
     21815     21813     21813     21814     21813     21865     21865     21867
     21867     21868     21867     21869     21867     21870     21870     21871
     21870     21872     21870     21873     21873     21874     21873     21875
     21873     21876     21876     21877     21876     21878     21876     21879
     21879     21880     21879     21881     21879     21882     21882     21883
     21882     21884     21882     21885     21885     21886     21885     21887
     21885     21888     21888     21889     21890     21891     21890     21892
     21892     21893     21892     21894     21892     21895     21895     21896
     21895     21897     21895     21898     21898     21899     21898     21900
     21898     21901     21901     21902     21901     21903     21901     21904
     21904     21905     21904     21906     21904     21907     21907     21908
     21907     21909     21907     21910     21910     21911     21910     21912
     21910     21913     21913     21914     21913     21915     21913     21916
     21821     21823     21888     21890     21865     21866     21917     21918
     21917     21919     21917     21920     21917     21921     21921     21922
     21921     21923     21921     21924     21924     21925     21924     21926
     21924     21930     21932     21931     21930     21927     21927     21931
     21927     21928     21927     21929     21932     21933     21932     21934
     21932     21935     21935     21936     21935     21943     21935     21937
     21943     21944     21943     21945     21943     21946     21937     21938
     21938     21940     21938     21939     21940     21941     21940     21942
     21940     21952     21952     21953     21952     21954     21952     21955
     21955     21956     21955     21957     21955     21958     21958     21959
     21958     21960     21960     21961     21960     21962     21962     21963
     21962     21964     21962     21965     21965     21966     21965     21967
     21967     21968     21967     21969     21969     21970     21969     21971
     21969     21972     21972     21973     21972     21974     21974     21975
     21974     21976     21976     21977     21976     21978     21976     21979
     21979     21980     21979     21981     21981     21982     21981     21983
     21983     21984     21983     21985     21983     21986     21986     21987
     21986     21988     21986     21989     21989     21990     21989     21991
     21989     21992     21992     21993     21992     21994     21992     21995
     21995     21996     21995     21997     21995     21998     21946     21947
     21947     21949     21947     21948     21949     21950     21949     21951
     21949     21999     21999     22000     21999     22001     21999     22002
     22002     22003     22002     22004     22002     22005     22005     22006
     22005     22007     22005     22008     22008     22009     22008     22010
     22008     22011     22011     22012     22011     22013     22011     22014
     22014     22015     22014     22016     22014     22017     22017     22018
     22017     22019     22017     22020     22020     22021     22020     22022
     22020     22023     22023     22024     22023     22025     22023     22026
     22026     22027     22026     22028     22026     22029     22029     22030
     22029     22031     22029     22032     22032     22033     22032     22034
     22032     22035     22035     22036     22035     22037     22035     22038
     22038     22039     22038     22040     22038     22041     22041     22042
     22041     22043     22041     22044     22044     22045     22044     22046
     22044     22047     22048     22049     22048     22050     22048     22051
     22048     22052     22052     22053     22052     22054     22052     22055
     22055     22056     22055     22057     22055     22061     22063     22062
     22061     22058     22058     22062     22058     22059     22058     22060
     22063     22064     22063     22065     22063     22066     22066     22067
     22066     22074     22066     22068     22074     22075     22074     22076
     22074     22077     22068     22069     22069     22071     22069     22070
     22071     22072     22071     22073     22071     22083     22083     22084
     22083     22085     22083     22086     22086     22087     22086     22088
     22086     22089     22089     22090     22089     22091     22091     22092
     22091     22093     22093     22094     22093     22095     22093     22096
     22096     22097     22096     22098     22098     22099     22098     22100
     22100     22101     22100     22102     22100     22103     22103     22104
     22103     22105     22105     22106     22105     22107     22107     22108
     22107     22109     22107     22110     22110     22111     22110     22112
     22112     22113     22112     22114     22114     22115     22114     22116
     22114     22117     22117     22118     22117     22119     22117     22120
     22120     22121     22120     22122     22120     22123     22123     22124
     22123     22125     22123     22126     22126     22127     22126     22128
     22126     22129     22077     22078     22078     22080     22078     22079
     22080     22081     22080     22082     22080     22130     22130     22131
     22130     22132     22130     22133     22133     22134     22133     22135
     22133     22136     22136     22137     22136     22138     22136     22139
     22139     22140     22139     22141     22139     22142     22142     22143
     22142     22144     22142     22145     22145     22146     22145     22147
     22145     22148     22148     22149     22148     22150     22148     22151
     22151     22152     22151     22153     22151     22154     22154     22155
     22154     22156     22154     22157     22157     22158     22157     22159
     22157     22160     22160     22161     22160     22162     22160     22163
     22163     22164     22163     22165     22163     22166     22166     22167
     22166     22168     22166     22169     22169     22170     22169     22171
     22169     22172     22172     22173     22172     22174     22172     22175
     22175     22176     22175     22177     22175     22178     22179     22181
     22179     22180     22181     22182     22179     22225     22225     22226
     22225     22227     22225     22222     22222     22223     22222     22224
     22179     22183     22183     22184     22183     22185     22183     22186
     22186     22217     22217     22222     22217     22218     22218     22219
     22218     22220     22218     22221     22186     22187     22187     22188
     22187     22189     22189     22190     22189     22191     22189     22192
     22192     22193     22192     22215     22215     22216     22215     22217
     22192     22194     22194     22195     22194     22204     22204     22209
     22209     22210     22209     22211     22209     22212     22212     22213
     22212     22214     22212     22215     22204     22205     22205     22206
     22205     22207     22205     22208     22194     22196     22196     22197
     22196     22198     22196     22199     22199     22200     22199     22201
     22199     22202     22202     22203     22202     22204     22202     22228
     22228     22229     22228     22230     22230     22231     22230     22232
     22230     22233     22228     22234     22234     22235     22234     22236
     22234     22237     22237     22238     22237     22239     22237     22240
     22240     22241     22240     22242     22240     22243     22243     22244
     22243     22245     22245     22246     22245     22247     22245     22248
     22243     22249     22249     22250     22249     22251     22249     22252

     42900 !NTHETA: angles
         1         3         4         1         5         6         1         5         7
         1         5         8         1        47        44         1        47        48
         1        47        49         2         1         3         2         1         5
         2         1        47         3         1         5         3         1        47
         5         1        47         5         8         9         5         8        39
         6         5         7         6         5         8         7         5         8
         8         9        10         8         9        11         8        39        37
         8        39        40         8        39        44         9         8        39
         9        11        12         9        11        13         9        11        14
        10         9        11        11        14        15        11        14        16
        11        14        37        12        11        13        12        11        14
        13        11        14        14        16        17        14        16        18
        14        16        26        14        37        34        14        37        38
        14        37        39        15        14        16        15        14        37
        16        14        37        16        18        19        16        18        20
        16        18        21        16        26        24        16        26        27
        16        26        31        17        16        18        17        16        26
        18        16        26        18        21        22        18        21        23
        18        21        24        19        18        20        19        18        21
        20        18        21        21        24        25        21        24        26
        21        24        50        22        21        23        22        21        24
        23        21        24        24        26        27        24        26        31
        24        50        51        24        50        52        24        50        56
        25        24        26        25        24        50        26        24        50
        26        27        28        26        27        29        26        27        30
        26        31        32        26        31        33        26        31        34
        27        26        31        28        27        29        28        27        30
        29        27        30        31        34        35        31        34        36
        31        34        37        32        31        33        32        31        34
        33        31        34        34        37        38        34        37        39
        35        34        36        35        34        37        36        34        37
        37        39        40        37        39        44        38        37        39
        39        40        41        39        40        42        39        40        43
        39        44        45        39        44        46        39        44        47
        40        39        44        41        40        42        41        40        43
        42        40        43        44        47        48        44        47        49
        45        44        46        45        44        47        46        44        47
        48        47        49        50        52        53        50        52        54
        50        52        55        50        56        57        50        56        58
        50        56        59        51        50        52        51        50        56
        52        50        56        53        52        54        53        52        55
        54        52        55        56        59        60        56        59        61
        56        59        62        57        56        58        57        56        59
        58        56        59        59        62        63        59        62        64
        59        62        65        60        59        61        60        59        62
        61        59        62        62        65        66        62        65        67
        62        65        71        63        62        64        63        62        65
        64        62        65        65        67        68        65        67        69
        65        67        70        65        71        72        65        71        73
        65        71        74        66        65        67        66        65        71
        67        65        71        68        67        69        68        67        70
        69        67        70        72        71        73        72        71        74
        73        71        74        75        76        77        75        76        78
        75        76        91        75        79        80        75        79        81
        75        79        82        75        83        84        75        83        85
        75        83        86        75        87        88        75        87        89
        75        87        90        76        75        79        76        75        83
        76        75        87        76        91        92        76        91        93
        76        91        97        77        76        78        77        76        91
        78        76        91        79        75        83        79        75        87
        80        79        81        80        79        82        81        79        82
        83        75        87        84        83        85        84        83        86
        85        83        86        88        87        89        88        87        90
        89        87        90        91        97        94        92        91        93
        92        91        97        93        91        97        94        98        99
        95        94        96        95        94        97        95        94        98
        96        94        97        96        94        98        97        94        98
        98        99       100        98        99       101        98        99       102
        99       102       103        99       102       104        99       102       110
       100        99       101       100        99       102       101        99       102
       102       104       105       102       110       111       102       110       112
       102       110       113       103       102       104       103       102       110
       104       102       110       104       105       106       104       105       107
       105       107       108       105       107       109       105       107       119
       106       105       107       107       119       120       107       119       121
       107       119       122       108       107       109       108       107       119
       109       107       119       110       113       114       111       110       112
       111       110       113       112       110       113       113       114       115
       113       114       116       114       116       117       114       116       118
       114       116       166       115       114       116       116       166       167
       116       166       168       116       166       169       117       116       118
       117       116       166       118       116       166       119       122       123
       119       122       124       119       122       125       120       119       121
       120       119       122       121       119       122       122       125       126
       122       125       127       123       122       124       123       122       125
       124       122       125       125       127       128       125       127       129
       126       125       127       127       129       130       127       129       131
       127       129       132       128       127       129       129       132       133
       129       132       134       130       129       131       130       129       132
       131       129       132       132       134       135       132       134       136
       133       132       134       134       136       137       134       136       138
       134       136       139       135       134       136       136       139       140
       136       139       141       137       136       138       137       136       139
       138       136       139       139       141       142       139       141       143
       140       139       141       141       143       144       141       143       145
       141       143       146       142       141       143       143       146       147
       143       146       148       144       143       145       144       143       146
       145       143       146       146       148       149       146       148       150
       147       146       148       148       150       151       148       150       152
       148       150       153       149       148       150       150       153       154
       150       153       155       150       153       156       151       150       152
       151       150       153       152       150       153       153       156       157
       153       156       158       153       156       159       154       153       155
       154       153       156       155       153       156       156       159       160
       156       159       161       156       159       162       157       156       158
       157       156       159       158       156       159       159       162       163
       159       162       164       159       162       165       160       159       161
       160       159       162       161       159       162       163       162       164
       163       162       165       164       162       165       166       169       170
       166       169       171       166       169       172       167       166       168
       167       166       169       168       166       169       169       172       173
       169       172       174       169       172       175       170       169       171
       170       169       172       171       169       172       172       175       176
       172       175       177       172       175       178       173       172       174
       173       172       175       174       172       175       175       178       179
       175       178       180       175       178       181       176       175       177
       176       175       178       177       175       178       178       181       182
       178       181       183       178       181       184       179       178       180
       179       178       181       180       178       181       181       184       185
       181       184       186       181       184       187       182       181       183
       182       181       184       183       181       184       184       187       188
       184       187       189       184       187       190       185       184       186
       185       184       187       186       184       187       187       190       191
       187       190       192       187       190       193       188       187       189
       188       187       190       189       187       190       190       193       194
       190       193       195       190       193       196       191       190       192
       191       190       193       192       190       193       193       196       197
       193       196       198       193       196       199       194       193       195
       194       193       196       195       193       196       196       199       200
       196       199       201       196       199       202       197       196       198
       197       196       199       198       196       199       199       202       203
       199       202       204       199       202       205       200       199       201
       200       199       202       201       199       202       202       205       206
       202       205       207       202       205       208       203       202       204
       203       202       205       204       202       205       205       208       209
       205       208       210       205       208       211       206       205       207
       206       205       208       207       205       208       208       211       212
       208       211       213       208       211       214       209       208       210
       209       208       211       210       208       211       212       211       213
       212       211       214       213       211       214       215       216       217
       215       216       218       215       216       219       215       220       221
       215       220       222       215       220       223       215       224       225
       215       224       226       215       224       227       215       228       229
       215       228       230       215       228       231       216       215       220
       216       215       224       216       215       228       217       216       218
       217       216       219       218       216       219       220       215       224
       220       215       228       221       220       222       221       220       223
       222       220       223       224       215       228       225       224       226
       225       224       227       226       224       227       228       231       232
       228       231       233       228       231       237       229       228       230
       229       228       231       230       228       231       231       237       234
       232       231       233       232       231       237       233       231       237
       234       238       239       235       234       236       235       234       237
       235       234       238       236       234       237       236       234       238
       237       234       238       238       239       240       238       239       241
       238       239       242       239       242       243       239       242       244
       239       242       250       240       239       241       240       239       242
       241       239       242       242       244       245       242       250       251
       242       250       252       242       250       253       243       242       244
       243       242       250       244       242       250       244       245       246
       244       245       247       245       247       248       245       247       249
       245       247       259       246       245       247       247       259       260
       247       259       261       247       259       262       248       247       249
       248       247       259       249       247       259       250       253       254
       251       250       252       251       250       253       252       250       253
       253       254       255       253       254       256       254       256       257
       254       256       258       254       256       304       255       254       256
       256       304       305       256       304       306       256       304       307
       257       256       258       257       256       304       258       256       304
       259       262       263       259       262       264       259       262       265
       260       259       261       260       259       262       261       259       262
       262       265       266       262       265       267       262       265       268
       263       262       264       263       262       265       264       262       265
       265       268       269       265       268       270       265       268       271
       266       265       267       266       265       268       267       265       268
       268       271       272       268       271       273       268       271       274
       269       268       270       269       268       271       270       268       271
       271       274       275       271       274       276       271       274       277
       272       271       273       272       271       274       273       271       274
       274       277       278       274       277       279       275       274       276
       275       274       277       276       274       277       277       279       280
       277       279       281       278       277       279       279       281       282
       279       281       283       279       281       284       280       279       281
       281       284       285       281       284       286       282       281       283
       282       281       284       283       281       284       284       286       287
       284       286       288       285       284       286       286       288       289
       286       288       290       286       288       291       287       286       288
       288       291       292       288       291       293       288       291       294
       289       288       290       289       288       291       290       288       291
       291       294       295       291       294       296       291       294       297
       292       291       293       292       291       294       293       291       294
       294       297       298       294       297       299       294       297       300
       295       294       296       295       294       297       296       294       297
       297       300       301       297       300       302       297       300       303
       298       297       299       298       297       300       299       297       300
       301       300       302       301       300       303       302       300       303
       304       307       308       304       307       309       304       307       310
       305       304       306       305       304       307       306       304       307
       307       310       311       307       310       312       307       310       313
       308       307       309       308       307       310       309       307       310
       310       313       314       310       313       315       310       313       316
       311       310       312       311       310       313       312       310       313
       313       316       317       313       316       318       313       316       319
       314       313       315       314       313       316       315       313       316
       316       319       320       316       319       321       316       319       322
       317       316       318       317       316       319       318       316       319
       319       322       323       319       322       324       319       322       325
       320       319       321       320       319       322       321       319       322
       322       325       326       322       325       327       322       325       328
       323       322       324       323       322       325       324       322       325
       325       328       329       325       328       330       325       328       331
       326       325       327       326       325       328       327       325       328
       328       331       332       328       331       333       328       331       334
       329       328       330       329       328       331       330       328       331
       331       334       335       331       334       336       331       334       337
       332       331       333       332       331       334       333       331       334
       334       337       338       334       337       339       334       337       340
       335       334       336       335       334       337       336       334       337
       337       340       341       337       340       342       337       340       343
       338       337       339       338       337       340       339       337       340
       340       343       344       340       343       345       340       343       346
       341       340       342       341       340       343       342       340       343
       343       346       347       343       346       348       343       346       349
       344       343       345       344       343       346       345       343       346
       346       349       350       346       349       351       346       349       352
       347       346       348       347       346       349       348       346       349
       350       349       351       350       349       352       351       349       352
       353       357       358       353       357       359       353       357       362
       354       353       355       354       353       356       354       353       357
       355       353       356       355       353       357       356       353       357
       357       359       360       357       359       361       357       362       363
       357       362       364       357       362       368       358       357       359
       358       357       362       359       357       362       360       359       361
       362       368       365       363       362       364       363       362       368
       364       362       368       365       369       370       366       365       367
       366       365       368       366       365       369       367       365       368
       367       365       369       368       365       369       369       370       371
       369       370       372       369       370       373       370       373       374
       370       373       375       370       373       381       371       370       372
       371       370       373       372       370       373       373       375       376
       373       381       382       373       381       383       373       381       384
       374       373       375       374       373       381       375       373       381
       375       376       377       375       376       378       376       378       379
       376       378       380       376       378       390       377       376       378
       378       390       391       378       390       392       378       390       393
       379       378       380       379       378       390       380       378       390
       381       384       385       382       381       383       382       381       384
       383       381       384       384       385       386       384       385       387
       385       387       388       385       387       389       385       387       437
       386       385       387       387       437       438       387       437       439
       387       437       440       388       387       389       388       387       437
       389       387       437       390       393       394       390       393       395
       390       393       396       391       390       392       391       390       393
       392       390       393       393       396       397       393       396       398
       394       393       395       394       393       396       395       393       396
       396       398       399       396       398       400       397       396       398
       398       400       401       398       400       402       398       400       403
       399       398       400       400       403       404       400       403       405
       401       400       402       401       400       403       402       400       403
       403       405       406       403       405       407       404       403       405
       405       407       408       405       407       409       405       407       410
       406       405       407       407       410       411       407       410       412
       408       407       409       408       407       410       409       407       410
       410       412       413       410       412       414       411       410       412
       412       414       415       412       414       416       412       414       417
       413       412       414       414       417       418       414       417       419
       415       414       416       415       414       417       416       414       417
       417       419       420       417       419       421       418       417       419
       419       421       422       419       421       423       419       421       424
       420       419       421       421       424       425       421       424       426
       421       424       427       422       421       423       422       421       424
       423       421       424       424       427       428       424       427       429
       424       427       430       425       424       426       425       424       427
       426       424       427       427       430       431       427       430       432
       427       430       433       428       427       429       428       427       430
       429       427       430       430       433       434       430       433       435
       430       433       436       431       430       432       431       430       433
       432       430       433       434       433       435       434       433       436
       435       433       436       437       440       441       437       440       442
       437       440       443       438       437       439       438       437       440
       439       437       440       440       443       444       440       443       445
       440       443       446       441       440       442       441       440       443
       442       440       443       443       446       447       443       446       448
       443       446       449       444       443       445       444       443       446
       445       443       446       446       449       450       446       449       451
       446       449       452       447       446       448       447       446       449
       448       446       449       449       452       453       449       452       454
       449       452       455       450       449       451       450       449       452
       451       449       452       452       455       456       452       455       457
       452       455       458       453       452       454       453       452       455
       454       452       455       455       458       459       455       458       460
       455       458       461       456       455       457       456       455       458
       457       455       458       458       461       462       458       461       463
       458       461       464       459       458       460       459       458       461
       460       458       461       461       464       465       461       464       466
       461       464       467       462       461       463       462       461       464
       463       461       464       464       467       468       464       467       469
       464       467       470       465       464       466       465       464       467
       466       464       467       467       470       471       467       470       472
       467       470       473       468       467       469       468       467       470
       469       467       470       470       473       474       470       473       475
       470       473       476       471       470       472       471       470       473
       472       470       473       473       476       477       473       476       478
       473       476       479       474       473       475       474       473       476
       475       473       476       476       479       480       476       479       481
       476       479       482       477       476       478       477       476       479
       478       476       479       479       482       483       479       482       484
       479       482       485       480       479       481       480       479       482
       481       479       482       483       482       484       483       482       485
       484       482       485       486       490       491       486       490       492
       486       490       495       487       486       488       487       486       489
       487       486       490       488       486       489       488       486       490
       489       486       490       490       492       493       490       492       494
       490       495       496       490       495       497       490       495       501
       491       490       492       491       490       495       492       490       495
       493       492       494       495       501       498       496       495       497
       496       495       501       497       495       501       498       502       503
       499       498       500       499       498       501       499       498       502
       500       498       501       500       498       502       501       498       502
       502       503       504       502       503       505       502       503       506
       503       506       507       503       506       508       503       506       514
       504       503       505       504       503       506       505       503       506
       506       508       509       506       514       515       506       514       516
       506       514       517       507       506       508       507       506       514
       508       506       514       508       509       510       508       509       511
       509       511       512       509       511       513       509       511       523
       510       509       511       511       523       524       511       523       525
       511       523       526       512       511       513       512       511       523
       513       511       523       514       517       518       515       514       516
       515       514       517       516       514       517       517       518       519
       517       518       520       518       520       521       518       520       522
       518       520       570       519       518       520       520       570       571
       520       570       572       520       570       573       521       520       522
       521       520       570       522       520       570       523       526       527
       523       526       528       523       526       529       524       523       525
       524       523       526       525       523       526       526       529       530
       526       529       531       527       526       528       527       526       529
       528       526       529       529       531       532       529       531       533
       530       529       531       531       533       534       531       533       535
       531       533       536       532       531       533       533       536       537
       533       536       538       534       533       535       534       533       536
       535       533       536       536       538       539       536       538       540
       537       536       538       538       540       541       538       540       542
       538       540       543       539       538       540       540       543       544
       540       543       545       541       540       542       541       540       543
       542       540       543       543       545       546       543       545       547
       544       543       545       545       547       548       545       547       549
       545       547       550       546       545       547       547       550       551
       547       550       552       548       547       549       548       547       550
       549       547       550       550       552       553       550       552       554
       551       550       552       552       554       555       552       554       556
       552       554       557       553       552       554       554       557       558
       554       557       559       554       557       560       555       554       556
       555       554       557       556       554       557       557       560       561
       557       560       562       557       560       563       558       557       559
       558       557       560       559       557       560       560       563       564
       560       563       565       560       563       566       561       560       562
       561       560       563       562       560       563       563       566       567
       563       566       568       563       566       569       564       563       565
       564       563       566       565       563       566       567       566       568
       567       566       569       568       566       569       570       573       574
       570       573       575       570       573       576       571       570       572
       571       570       573       572       570       573       573       576       577
       573       576       578       573       576       579       574       573       575
       574       573       576       575       573       576       576       579       580
       576       579       581       576       579       582       577       576       578
       577       576       579       578       576       579       579       582       583
       579       582       584       579       582       585       580       579       581
       580       579       582       581       579       582       582       585       586
       582       585       587       582       585       588       583       582       584
       583       582       585       584       582       585       585       588       589
       585       588       590       585       588       591       586       585       587
       586       585       588       587       585       588       588       591       592
       588       591       593       588       591       594       589       588       590
       589       588       591       590       588       591       591       594       595
       591       594       596       591       594       597       592       591       593
       592       591       594       593       591       594       594       597       598
       594       597       599       594       597       600       595       594       596
       595       594       597       596       594       597       597       600       601
       597       600       602       597       600       603       598       597       599
       598       597       600       599       597       600       600       603       604
       600       603       605       600       603       606       601       600       602
       601       600       603       602       600       603       603       606       607
       603       606       608       603       606       609       604       603       605
       604       603       606       605       603       606       606       609       610
       606       609       611       606       609       612       607       606       608
       607       606       609       608       606       609       609       612       613
       609       612       614       609       612       615       610       609       611
       610       609       612       611       609       612       612       615       616
       612       615       617       612       615       618       613       612       614
       613       612       615       614       612       615       616       615       617
       616       615       618       617       615       618       619       621       622
       619       623       624       619       623       625       619       623       626
       619       665       662       619       665       666       619       665       667
       620       619       621       620       619       623       620       619       665
       621       619       623       621       619       665       623       619       665
       623       626       627       623       626       657       624       623       625
       624       623       626       625       623       626       626       627       628
       626       627       629       626       657       655       626       657       658
       626       657       662       627       626       657       627       629       630
       627       629       631       627       629       632       628       627       629
       629       632       633       629       632       634       629       632       655
       630       629       631       630       629       632       631       629       632
       632       634       635       632       634       636       632       634       644
       632       655       652       632       655       656       632       655       657
       633       632       634       633       632       655       634       632       655
       634       636       637       634       636       638       634       636       639
       634       644       642       634       644       645       634       644       649
       635       634       636       635       634       644       636       634       644
       636       639       640       636       639       641       636       639       642
       637       636       638       637       636       639       638       636       639
       639       642       643       639       642       644       639       642       668
       640       639       641       640       639       642       641       639       642
       642       644       645       642       644       649       642       668       669
       642       668       670       642       668       674       643       642       644
       643       642       668       644       642       668       644       645       646
       644       645       647       644       645       648       644       649       650
       644       649       651       644       649       652       645       644       649
       646       645       647       646       645       648       647       645       648
       649       652       653       649       652       654       649       652       655
       650       649       651       650       649       652       651       649       652
       652       655       656       652       655       657       653       652       654
       653       652       655       654       652       655       655       657       658
       655       657       662       656       655       657       657       658       659
       657       658       660       657       658       661       657       662       663
       657       662       664       657       662       665       658       657       662
       659       658       660       659       658       661       660       658       661
       662       665       666       662       665       667       663       662       664
       663       662       665       664       662       665       666       665       667
       668       670       671       668       670       672       668       670       673
       668       674       675       668       674       676       668       674       677
       669       668       670       669       668       674       670       668       674
       671       670       672       671       670       673       672       670       673
       674       677       678       674       677       679       674       677       680
       675       674       676       675       674       677       676       674       677
       677       680       681       677       680       682       677       680       683
       678       677       679       678       677       680       679       677       680
       680       683       684       680       683       685       680       683       689
       681       680       682       681       680       683       682       680       683
       683       685       686       683       685       687       683       685       688
       683       689       690       683       689       691       683       689       692
       684       683       685       684       683       689       685       683       689
       686       685       687       686       685       688       687       685       688
       690       689       691       690       689       692       691       689       692
       693       694       695       693       694       696       693       694       697
       693       698       699       693       698       700       693       698       701
       693       702       703       693       702       704       693       702       705
       693       706       707       693       706       708       693       706       709
       694       693       698       694       693       702       694       693       706
       695       694       696       695       694       697       696       694       697
       698       693       702       698       693       706       699       698       700
       699       698       701       700       698       701       702       693       706
       703       702       704       703       702       705       704       702       705
       706       709       710       706       709       711       706       709       715
       707       706       708       707       706       709       708       706       709
       709       715       712       710       709       711       710       709       715
       711       709       715       712       716       717       713       712       714
       713       712       715       713       712       716       714       712       715
       714       712       716       715       712       716       716       717       718
       716       717       719       716       717       720       717       720       721
       717       720       722       717       720       728       718       717       719
       718       717       720       719       717       720       720       722       723
       720       728       729       720       728       730       720       728       731
       721       720       722       721       720       728       722       720       728
       722       723       724       722       723       725       723       725       726
       723       725       727       723       725       737       724       723       725
       725       737       738       725       737       739       725       737       740
       726       725       727       726       725       737       727       725       737
       728       731       732       729       728       730       729       728       731
       730       728       731       731       732       733       731       732       734
       732       734       735       732       734       736       732       734       782
       733       732       734       734       782       783       734       782       784
       734       782       785       735       734       736       735       734       782
       736       734       782       737       740       741       737       740       742
       737       740       743       738       737       739       738       737       740
       739       737       740       740       743       744       740       743       745
       740       743       746       741       740       742       741       740       743
       742       740       743       743       746       747       743       746       748
       743       746       749       744       743       745       744       743       746
       745       743       746       746       749       750       746       749       751
       746       749       752       747       746       748       747       746       749
       748       746       749       749       752       753       749       752       754
       749       752       755       750       749       751       750       749       752
       751       749       752       752       755       756       752       755       757
       753       752       754       753       752       755       754       752       755
       755       757       758       755       757       759       756       755       757
       757       759       760       757       759       761       757       759       762
       758       757       759       759       762       763       759       762       764
       760       759       761       760       759       762       761       759       762
       762       764       765       762       764       766       763       762       764
       764       766       767       764       766       768       764       766       769
       765       764       766       766       769       770       766       769       771
       766       769       772       767       766       768       767       766       769
       768       766       769       769       772       773       769       772       774
       769       772       775       770       769       771       770       769       772
       771       769       772       772       775       776       772       775       777
       772       775       778       773       772       774       773       772       775
       774       772       775       775       778       779       775       778       780
       775       778       781       776       775       777       776       775       778
       777       775       778       779       778       780       779       778       781
       780       778       781       782       785       786       782       785       787
       782       785       788       783       782       784       783       782       785
       784       782       785       785       788       789       785       788       790
       785       788       791       786       785       787       786       785       788
       787       785       788       788       791       792       788       791       793
       788       791       794       789       788       790       789       788       791
       790       788       791       791       794       795       791       794       796
       791       794       797       792       791       793       792       791       794
       793       791       794       794       797       798       794       797       799
       794       797       800       795       794       796       795       794       797
       796       794       797       797       800       801       797       800       802
       797       800       803       798       797       799       798       797       800
       799       797       800       800       803       804       800       803       805
       800       803       806       801       800       802       801       800       803
       802       800       803       803       806       807       803       806       808
       803       806       809       804       803       805       804       803       806
       805       803       806       806       809       810       806       809       811
       806       809       812       807       806       808       807       806       809
       808       806       809       809       812       813       809       812       814
       809       812       815       810       809       811       810       809       812
       811       809       812       812       815       816       812       815       817
       812       815       818       813       812       814       813       812       815
       814       812       815       815       818       819       815       818       820
       815       818       821       816       815       817       816       815       818
       817       815       818       818       821       822       818       821       823
       818       821       824       819       818       820       819       818       821
       820       818       821       821       824       825       821       824       826
       821       824       827       822       821       823       822       821       824
       823       821       824       824       827       828       824       827       829
       824       827       830       825       824       826       825       824       827
       826       824       827       828       827       829       828       827       830
       829       827       830       831       832       833       831       832       834
       831       832       835       831       836       837       831       836       838
       831       836       839       831       840       841       831       840       842
       831       840       843       831       844       845       831       844       846
       831       844       847       832       831       836       832       831       840
       832       831       844       833       832       834       833       832       835
       834       832       835       836       831       840       836       831       844
       837       836       838       837       836       839       838       836       839
       840       831       844       841       840       842       841       840       843
       842       840       843       844       847       848       844       847       849
       844       847       854       845       844       846       845       844       847
       846       844       847       847       854       850       848       847       849
       848       847       854       849       847       854       850       853       855
       851       850       852       851       850       853       851       850       854
       852       850       853       852       850       854       853       850       854
       853       855       856       853       855       857       853       855       860
       855       860       858       855       860       861       855       860       862
       856       855       857       856       855       860       857       855       860
       858       860       861       858       860       862       858       910       911
       858       910       912       859       858       860       859       858       910
       860       858       910       860       862       863       860       862       864
       860       862       866       861       860       862       862       864       865
       862       866       867       862       866       868       863       862       864
       863       862       866       864       862       866       866       868       869
       866       868       870       867       866       868       868       870       871
       868       870       872       868       870       873       869       868       870
       870       873       874       870       873       875       870       873       876
       871       870       872       871       870       873       872       870       873
       873       876       877       873       876       878       873       876       879
       874       873       875       874       873       876       875       873       876
       876       879       880       876       879       881       876       879       882
       877       876       878       877       876       879       878       876       879
       879       882       883       879       882       884       879       882       885
       880       879       881       880       879       882       881       879       882
       882       885       886       882       885       887       882       885       888
       883       882       884       883       882       885       884       882       885
       885       888       889       885       888       890       885       888       891
       886       885       887       886       885       888       887       885       888
       888       891       892       888       891       893       888       891       894
       889       888       890       889       888       891       890       888       891
       891       894       895       891       894       896       891       894       897
       892       891       893       892       891       894       893       891       894
       894       897       898       894       897       899       894       897       900
       895       894       896       895       894       897       896       894       897
       897       900       901       897       900       902       897       900       903
       898       897       899       898       897       900       899       897       900
       900       903       904       900       903       905       900       903       906
       901       900       902       901       900       903       902       900       903
       903       906       907       903       906       908       903       906       909
       904       903       905       904       903       906       905       903       906
       907       906       908       907       906       909       908       906       909
       910       912       913       910       912       914       910       912       915
       911       910       912       912       915       916       912       915       917
       912       915       918       913       912       914       913       912       915
       914       912       915       915       918       919       915       918       920
       915       918       921       916       915       917       916       915       918
       917       915       918       918       921       922       918       921       923
       918       921       924       919       918       920       919       918       921
       920       918       921       921       924       925       921       924       926
       921       924       927       922       921       923       922       921       924
       923       921       924       924       927       928       924       927       929
       924       927       930       925       924       926       925       924       927
       926       924       927       927       930       931       927       930       932
       927       930       933       928       927       929       928       927       930
       929       927       930       930       933       934       930       933       935
       931       930       932       931       930       933       932       930       933
       933       935       936       933       935       937       934       933       935
       935       937       938       935       937       939       935       937       940
       936       935       937       937       940       941       937       940       942
       937       940       943       938       937       939       938       937       940
       939       937       940       940       943       944       940       943       945
       940       943       946       941       940       942       941       940       943
       942       940       943       943       946       947       943       946       948
       943       946       949       944       943       945       944       943       946
       945       943       946       946       949       950       946       949       951
       946       949       952       947       946       948       947       946       949
       948       946       949       949       952       953       949       952       954
       949       952       955       950       949       951       950       949       952
       951       949       952       952       955       956       952       955       957
       952       955       958       953       952       954       953       952       955
       954       952       955       955       958       959       955       958       960
       955       958       961       956       955       957       956       955       958
       957       955       958       959       958       960       959       958       961
       960       958       961       962       966       967       962       966       968
       962       966       969       963       962       964       963       962       965
       963       962       966       964       962       965       964       962       966
       965       962       966       966       969       970       966       969       971
       966       969       975       967       966       968       967       966       969
       968       966       969       969       975       972       970       969       971
       970       969       975       971       969       975       972       976       977
       973       972       974       973       972       975       973       972       976
       974       972       975       974       972       976       975       972       976
       976       977       978       976       977       979       976       977       980
       977       980       981       977       980       982       977       980       988
       978       977       979       978       977       980       979       977       980
       980       982       983       980       988       989       980       988       990
       980       988       991       981       980       982       981       980       988
       982       980       988       982       983       984       982       983       985
       983       985       986       983       985       987       983       985       997
       984       983       985       985       997       998       985       997       999
       985       997      1000       986       985       987       986       985       997
       987       985       997       988       991       992       989       988       990
       989       988       991       990       988       991       991       992       993
       991       992       994       992       994       995       992       994       996
       992       994      1044       993       992       994       994      1044      1045
       994      1044      1046       994      1044      1047       995       994       996
       995       994      1044       996       994      1044       997      1000      1001
       997      1000      1002       997      1000      1003       998       997       999
       998       997      1000       999       997      1000      1000      1003      1004
      1000      1003      1005      1001      1000      1002      1001      1000      1003
      1002      1000      1003      1003      1005      1006      1003      1005      1007
      1004      1003      1005      1005      1007      1008      1005      1007      1009
      1005      1007      1010      1006      1005      1007      1007      1010      1011
      1007      1010      1012      1008      1007      1009      1008      1007      1010
      1009      1007      1010      1010      1012      1013      1010      1012      1014
      1011      1010      1012      1012      1014      1015      1012      1014      1016
      1012      1014      1017      1013      1012      1014      1014      1017      1018
      1014      1017      1019      1015      1014      1016      1015      1014      1017
      1016      1014      1017      1017      1019      1020      1017      1019      1021
      1018      1017      1019      1019      1021      1022      1019      1021      1023
      1019      1021      1024      1020      1019      1021      1021      1024      1025
      1021      1024      1026      1022      1021      1023      1022      1021      1024
      1023      1021      1024      1024      1026      1027      1024      1026      1028
      1025      1024      1026      1026      1028      1029      1026      1028      1030
      1026      1028      1031      1027      1026      1028      1028      1031      1032
      1028      1031      1033      1028      1031      1034      1029      1028      1030
      1029      1028      1031      1030      1028      1031      1031      1034      1035
      1031      1034      1036      1031      1034      1037      1032      1031      1033
      1032      1031      1034      1033      1031      1034      1034      1037      1038
      1034      1037      1039      1034      1037      1040      1035      1034      1036
      1035      1034      1037      1036      1034      1037      1037      1040      1041
      1037      1040      1042      1037      1040      1043      1038      1037      1039
      1038      1037      1040      1039      1037      1040      1041      1040      1042
      1041      1040      1043      1042      1040      1043      1044      1047      1048
      1044      1047      1049      1044      1047      1050      1045      1044      1046
      1045      1044      1047      1046      1044      1047      1047      1050      1051
      1047      1050      1052      1047      1050      1053      1048      1047      1049
      1048      1047      1050      1049      1047      1050      1050      1053      1054
      1050      1053      1055      1050      1053      1056      1051      1050      1052
      1051      1050      1053      1052      1050      1053      1053      1056      1057
      1053      1056      1058      1053      1056      1059      1054      1053      1055
      1054      1053      1056      1055      1053      1056      1056      1059      1060
      1056      1059      1061      1056      1059      1062      1057      1056      1058
      1057      1056      1059      1058      1056      1059      1059      1062      1063
      1059      1062      1064      1059      1062      1065      1060      1059      1061
      1060      1059      1062      1061      1059      1062      1062      1065      1066
      1062      1065      1067      1062      1065      1068      1063      1062      1064
      1063      1062      1065      1064      1062      1065      1065      1068      1069
      1065      1068      1070      1065      1068      1071      1066      1065      1067
      1066      1065      1068      1067      1065      1068      1068      1071      1072
      1068      1071      1073      1068      1071      1074      1069      1068      1070
      1069      1068      1071      1070      1068      1071      1071      1074      1075
      1071      1074      1076      1071      1074      1077      1072      1071      1073
      1072      1071      1074      1073      1071      1074      1074      1077      1078
      1074      1077      1079      1074      1077      1080      1075      1074      1076
      1075      1074      1077      1076      1074      1077      1077      1080      1081
      1077      1080      1082      1077      1080      1083      1078      1077      1079
      1078      1077      1080      1079      1077      1080      1080      1083      1084
      1080      1083      1085      1080      1083      1086      1081      1080      1082
      1081      1080      1083      1082      1080      1083      1083      1086      1087
      1083      1086      1088      1083      1086      1089      1084      1083      1085
      1084      1083      1086      1085      1083      1086      1086      1089      1090
      1086      1089      1091      1086      1089      1092      1087      1086      1088
      1087      1086      1089      1088      1086      1089      1090      1089      1091
      1090      1089      1092      1091      1089      1092      1093      1094      1095
      1093      1094      1096      1093      1094      1097      1093      1098      1099
      1093      1098      1100      1093      1098      1101      1093      1102      1103
      1093      1102      1104      1093      1102      1105      1093      1106      1107
      1093      1106      1108      1093      1106      1109      1094      1093      1098
      1094      1093      1102      1094      1093      1106      1095      1094      1096
      1095      1094      1097      1096      1094      1097      1098      1093      1102
      1098      1093      1106      1099      1098      1100      1099      1098      1101
      1100      1098      1101      1102      1093      1106      1103      1102      1104
      1103      1102      1105      1104      1102      1105      1106      1109      1110
      1106      1109      1111      1106      1109      1116      1107      1106      1108
      1107      1106      1109      1108      1106      1109      1109      1116      1112
      1110      1109      1111      1110      1109      1116      1111      1109      1116
      1112      1115      1117      1113      1112      1114      1113      1112      1115
      1113      1112      1116      1114      1112      1115      1114      1112      1116
      1115      1112      1116      1115      1117      1118      1115      1117      1119
      1115      1117      1122      1117      1122      1120      1117      1122      1123
      1117      1122      1124      1118      1117      1119      1118      1117      1122
      1119      1117      1122      1120      1122      1123      1120      1122      1124
      1120      1172      1173      1120      1172      1174      1121      1120      1122
      1121      1120      1172      1122      1120      1172      1122      1124      1125
      1122      1124      1126      1122      1124      1128      1123      1122      1124
      1124      1126      1127      1124      1128      1129      1124      1128      1130
      1125      1124      1126      1125      1124      1128      1126      1124      1128
      1128      1130      1131      1128      1130      1132      1129      1128      1130
      1130      1132      1133      1130      1132      1134      1130      1132      1135
      1131      1130      1132      1132      1135      1136      1132      1135      1137
      1132      1135      1138      1133      1132      1134      1133      1132      1135
      1134      1132      1135      1135      1138      1139      1135      1138      1140
      1135      1138      1141      1136      1135      1137      1136      1135      1138
      1137      1135      1138      1138      1141      1142      1138      1141      1143
      1138      1141      1144      1139      1138      1140      1139      1138      1141
      1140      1138      1141      1141      1144      1145      1141      1144      1146
      1141      1144      1147      1142      1141      1143      1142      1141      1144
      1143      1141      1144      1144      1147      1148      1144      1147      1149
      1144      1147      1150      1145      1144      1146      1145      1144      1147
      1146      1144      1147      1147      1150      1151      1147      1150      1152
      1147      1150      1153      1148      1147      1149      1148      1147      1150
      1149      1147      1150      1150      1153      1154      1150      1153      1155
      1150      1153      1156      1151      1150      1152      1151      1150      1153
      1152      1150      1153      1153      1156      1157      1153      1156      1158
      1153      1156      1159      1154      1153      1155      1154      1153      1156
      1155      1153      1156      1156      1159      1160      1156      1159      1161
      1156      1159      1162      1157      1156      1158      1157      1156      1159
      1158      1156      1159      1159      1162      1163      1159      1162      1164
      1159      1162      1165      1160      1159      1161      1160      1159      1162
      1161      1159      1162      1162      1165      1166      1162      1165      1167
      1162      1165      1168      1163      1162      1164      1163      1162      1165
      1164      1162      1165      1165      1168      1169      1165      1168      1170
      1165      1168      1171      1166      1165      1167      1166      1165      1168
      1167      1165      1168      1169      1168      1170      1169      1168      1171
      1170      1168      1171      1172      1174      1175      1172      1174      1176
      1172      1174      1177      1173      1172      1174      1174      1177      1178
      1174      1177      1179      1174      1177      1180      1175      1174      1176
      1175      1174      1177      1176      1174      1177      1177      1180      1181
      1177      1180      1182      1177      1180      1183      1178      1177      1179
      1178      1177      1180      1179      1177      1180      1180      1183      1184
      1180      1183      1185      1180      1183      1186      1181      1180      1182
      1181      1180      1183      1182      1180      1183      1183      1186      1187
      1183      1186      1188      1183      1186      1189      1184      1183      1185
      1184      1183      1186      1185      1183      1186      1186      1189      1190
      1186      1189      1191      1186      1189      1192      1187      1186      1188
      1187      1186      1189      1188      1186      1189      1189      1192      1193
      1189      1192      1194      1189      1192      1195      1190      1189      1191
      1190      1189      1192      1191      1189      1192      1192      1195      1196
      1192      1195      1197      1193      1192      1194      1193      1192      1195
      1194      1192      1195      1195      1197      1198      1195      1197      1199
      1196      1195      1197      1197      1199      1200      1197      1199      1201
      1197      1199      1202      1198      1197      1199      1199      1202      1203
      1199      1202      1204      1199      1202      1205      1200      1199      1201
      1200      1199      1202      1201      1199      1202      1202      1205      1206
      1202      1205      1207      1202      1205      1208      1203      1202      1204
      1203      1202      1205      1204      1202      1205      1205      1208      1209
      1205      1208      1210      1205      1208      1211      1206      1205      1207
      1206      1205      1208      1207      1205      1208      1208      1211      1212
      1208      1211      1213      1208      1211      1214      1209      1208      1210
      1209      1208      1211      1210      1208      1211      1211      1214      1215
      1211      1214      1216      1211      1214      1217      1212      1211      1213
      1212      1211      1214      1213      1211      1214      1214      1217      1218
      1214      1217      1219      1214      1217      1220      1215      1214      1216
      1215      1214      1217      1216      1214      1217      1217      1220      1221
      1217      1220      1222      1217      1220      1223      1218      1217      1219
      1218      1217      1220      1219      1217      1220      1221      1220      1222
      1221      1220      1223      1222      1220      1223      1224      1228      1229
      1224      1228      1230      1224      1228      1231      1225      1224      1226
      1225      1224      1227      1225      1224      1228      1226      1224      1227
      1226      1224      1228      1227      1224      1228      1228      1231      1232
      1228      1231      1233      1228      1231      1237      1229      1228      1230
      1229      1228      1231      1230      1228      1231      1231      1237      1234
      1232      1231      1233      1232      1231      1237      1233      1231      1237
      1234      1238      1239      1235      1234      1236      1235      1234      1237
      1235      1234      1238      1236      1234      1237      1236      1234      1238
      1237      1234      1238      1238      1239      1240      1238      1239      1241
      1238      1239      1242      1239      1242      1243      1239      1242      1244
      1239      1242      1250      1240      1239      1241      1240      1239      1242
      1241      1239      1242      1242      1244      1245      1242      1250      1251
      1242      1250      1252      1242      1250      1253      1243      1242      1244
      1243      1242      1250      1244      1242      1250      1244      1245      1246
      1244      1245      1247      1245      1247      1248      1245      1247      1249
      1245      1247      1259      1246      1245      1247      1247      1259      1260
      1247      1259      1261      1247      1259      1262      1248      1247      1249
      1248      1247      1259      1249      1247      1259      1250      1253      1254
      1251      1250      1252      1251      1250      1253      1252      1250      1253
      1253      1254      1255      1253      1254      1256      1254      1256      1257
      1254      1256      1258      1254      1256      1306      1255      1254      1256
      1256      1306      1307      1256      1306      1308      1256      1306      1309
      1257      1256      1258      1257      1256      1306      1258      1256      1306
      1259      1262      1263      1259      1262      1264      1259      1262      1265
      1260      1259      1261      1260      1259      1262      1261      1259      1262
      1262      1265      1266      1262      1265      1267      1262      1265      1268
      1263      1262      1264      1263      1262      1265      1264      1262      1265
      1265      1268      1269      1265      1268      1270      1265      1268      1271
      1266      1265      1267      1266      1265      1268      1267      1265      1268
      1268      1271      1272      1268      1271      1273      1268      1271      1274
      1269      1268      1270      1269      1268      1271      1270      1268      1271
      1271      1274      1275      1271      1274      1276      1271      1274      1277
      1272      1271      1273      1272      1271      1274      1273      1271      1274
      1274      1277      1278      1274      1277      1279      1275      1274      1276
      1275      1274      1277      1276      1274      1277      1277      1279      1280
      1277      1279      1281      1278      1277      1279      1279      1281      1282
      1279      1281      1283      1279      1281      1284      1280      1279      1281
      1281      1284      1285      1281      1284      1286      1281      1284      1287
      1282      1281      1283      1282      1281      1284      1283      1281      1284
      1284      1287      1288      1284      1287      1289      1284      1287      1290
      1285      1284      1286      1285      1284      1287      1286      1284      1287
      1287      1290      1291      1287      1290      1292      1287      1290      1293
      1288      1287      1289      1288      1287      1290      1289      1287      1290
      1290      1293      1294      1290      1293      1295      1290      1293      1296
      1291      1290      1292      1291      1290      1293      1292      1290      1293
      1293      1296      1297      1293      1296      1298      1293      1296      1299
      1294      1293      1295      1294      1293      1296      1295      1293      1296
      1296      1299      1300      1296      1299      1301      1296      1299      1302
      1297      1296      1298      1297      1296      1299      1298      1296      1299
      1299      1302      1303      1299      1302      1304      1299      1302      1305
      1300      1299      1301      1300      1299      1302      1301      1299      1302
      1303      1302      1304      1303      1302      1305      1304      1302      1305
      1306      1309      1310      1306      1309      1311      1306      1309      1312
      1307      1306      1308      1307      1306      1309      1308      1306      1309
      1309      1312      1313      1309      1312      1314      1309      1312      1315
      1310      1309      1311      1310      1309      1312      1311      1309      1312
      1312      1315      1316      1312      1315      1317      1312      1315      1318
      1313      1312      1314      1313      1312      1315      1314      1312      1315
      1315      1318      1319      1315      1318      1320      1315      1318      1321
      1316      1315      1317      1316      1315      1318      1317      1315      1318
      1318      1321      1322      1318      1321      1323      1318      1321      1324
      1319      1318      1320      1319      1318      1321      1320      1318      1321
      1321      1324      1325      1321      1324      1326      1321      1324      1327
      1322      1321      1323      1322      1321      1324      1323      1321      1324
      1324      1327      1328      1324      1327      1329      1324      1327      1330
      1325      1324      1326      1325      1324      1327      1326      1324      1327
      1327      1330      1331      1327      1330      1332      1327      1330      1333
      1328      1327      1329      1328      1327      1330      1329      1327      1330
      1330      1333      1334      1330      1333      1335      1330      1333      1336
      1331      1330      1332      1331      1330      1333      1332      1330      1333
      1333      1336      1337      1333      1336      1338      1333      1336      1339
      1334      1333      1335      1334      1333      1336      1335      1333      1336
      1336      1339      1340      1336      1339      1341      1336      1339      1342
      1337      1336      1338      1337      1336      1339      1338      1336      1339
      1339      1342      1343      1339      1342      1344      1339      1342      1345
      1340      1339      1341      1340      1339      1342      1341      1339      1342
      1342      1345      1346      1342      1345      1347      1342      1345      1348
      1343      1342      1344      1343      1342      1345      1344      1342      1345
      1345      1348      1349      1345      1348      1350      1345      1348      1351
      1346      1345      1347      1346      1345      1348      1347      1345      1348
      1348      1351      1352      1348      1351      1353      1348      1351      1354
      1349      1348      1350      1349      1348      1351      1350      1348      1351
      1352      1351      1353      1352      1351      1354      1353      1351      1354
      1355      1356      1357      1355      1356      1358      1355      1356      1359
      1355      1360      1361      1355      1360      1362      1355      1360      1363
      1355      1364      1365      1355      1364      1366      1355      1364      1367
      1355      1368      1369      1355      1368      1370      1355      1368      1371
      1356      1355      1360      1356      1355      1364      1356      1355      1368
      1357      1356      1358      1357      1356      1359      1358      1356      1359
      1360      1355      1364      1360      1355      1368      1361      1360      1362
      1361      1360      1363      1362      1360      1363      1364      1355      1368
      1365      1364      1366      1365      1364      1367      1366      1364      1367
      1368      1371      1372      1368      1371      1373      1368      1371      1378
      1369      1368      1370      1369      1368      1371      1370      1368      1371
      1371      1378      1374      1372      1371      1373      1372      1371      1378
      1373      1371      1378      1374      1377      1379      1375      1374      1376
      1375      1374      1377      1375      1374      1378      1376      1374      1377
      1376      1374      1378      1377      1374      1378      1377      1379      1380
      1377      1379      1381      1377      1379      1384      1379      1384      1382
      1379      1384      1385      1379      1384      1386      1380      1379      1381
      1380      1379      1384      1381      1379      1384      1382      1384      1385
      1382      1384      1386      1382      1434      1435      1382      1434      1436
      1383      1382      1384      1383      1382      1434      1384      1382      1434
      1384      1386      1387      1384      1386      1388      1384      1386      1390
      1385      1384      1386      1386      1388      1389      1386      1390      1391
      1386      1390      1392      1387      1386      1388      1387      1386      1390
      1388      1386      1390      1390      1392      1393      1390      1392      1394
      1391      1390      1392      1392      1394      1395      1392      1394      1396
      1392      1394      1397      1393      1392      1394      1394      1397      1398
      1394      1397      1399      1394      1397      1400      1395      1394      1396
      1395      1394      1397      1396      1394      1397      1397      1400      1401
      1397      1400      1402      1397      1400      1403      1398      1397      1399
      1398      1397      1400      1399      1397      1400      1400      1403      1404
      1400      1403      1405      1400      1403      1406      1401      1400      1402
      1401      1400      1403      1402      1400      1403      1403      1406      1407
      1403      1406      1408      1403      1406      1409      1404      1403      1405
      1404      1403      1406      1405      1403      1406      1406      1409      1410
      1406      1409      1411      1406      1409      1412      1407      1406      1408
      1407      1406      1409      1408      1406      1409      1409      1412      1413
      1409      1412      1414      1409      1412      1415      1410      1409      1411
      1410      1409      1412      1411      1409      1412      1412      1415      1416
      1412      1415      1417      1412      1415      1418      1413      1412      1414
      1413      1412      1415      1414      1412      1415      1415      1418      1419
      1415      1418      1420      1415      1418      1421      1416      1415      1417
      1416      1415      1418      1417      1415      1418      1418      1421      1422
      1418      1421      1423      1418      1421      1424      1419      1418      1420
      1419      1418      1421      1420      1418      1421      1421      1424      1425
      1421      1424      1426      1421      1424      1427      1422      1421      1423
      1422      1421      1424      1423      1421      1424      1424      1427      1428
      1424      1427      1429      1424      1427      1430      1425      1424      1426
      1425      1424      1427      1426      1424      1427      1427      1430      1431
      1427      1430      1432      1427      1430      1433      1428      1427      1429
      1428      1427      1430      1429      1427      1430      1431      1430      1432
      1431      1430      1433      1432      1430      1433      1434      1436      1437
      1434      1436      1438      1434      1436      1439      1435      1434      1436
      1436      1439      1440      1436      1439      1441      1436      1439      1442
      1437      1436      1438      1437      1436      1439      1438      1436      1439
      1439      1442      1443      1439      1442      1444      1439      1442      1445
      1440      1439      1441      1440      1439      1442      1441      1439      1442
      1442      1445      1446      1442      1445      1447      1442      1445      1448
      1443      1442      1444      1443      1442      1445      1444      1442      1445
      1445      1448      1449      1445      1448      1450      1445      1448      1451
      1446      1445      1447      1446      1445      1448      1447      1445      1448
      1448      1451      1452      1448      1451      1453      1448      1451      1454
      1449      1448      1450      1449      1448      1451      1450      1448      1451
      1451      1454      1455      1451      1454      1456      1451      1454      1457
      1452      1451      1453      1452      1451      1454      1453      1451      1454
      1454      1457      1458      1454      1457      1459      1455      1454      1456
      1455      1454      1457      1456      1454      1457      1457      1459      1460
      1457      1459      1461      1458      1457      1459      1459      1461      1462
      1459      1461      1463      1459      1461      1464      1460      1459      1461
      1461      1464      1465      1461      1464      1466      1461      1464      1467
      1462      1461      1463      1462      1461      1464      1463      1461      1464
      1464      1467      1468      1464      1467      1469      1464      1467      1470
      1465      1464      1466      1465      1464      1467      1466      1464      1467
      1467      1470      1471      1467      1470      1472      1467      1470      1473
      1468      1467      1469      1468      1467      1470      1469      1467      1470
      1470      1473      1474      1470      1473      1475      1470      1473      1476
      1471      1470      1472      1471      1470      1473      1472      1470      1473
      1473      1476      1477      1473      1476      1478      1473      1476      1479
      1474      1473      1475      1474      1473      1476      1475      1473      1476
      1476      1479      1480      1476      1479      1481      1476      1479      1482
      1477      1476      1478      1477      1476      1479      1478      1476      1479
      1479      1482      1483      1479      1482      1484      1479      1482      1485
      1480      1479      1481      1480      1479      1482      1481      1479      1482
      1483      1482      1484      1483      1482      1485      1484      1482      1485
      1486      1487      1488      1486      1487      1489      1486      1487      1490
      1486      1491      1492      1486      1491      1493      1486      1491      1494
      1486      1495      1496      1486      1495      1497      1486      1495      1498
      1486      1499      1500      1486      1499      1501      1486      1499      1502
      1487      1486      1491      1487      1486      1495      1487      1486      1499
      1488      1487      1489      1488      1487      1490      1489      1487      1490
      1491      1486      1495      1491      1486      1499      1492      1491      1493
      1492      1491      1494      1493      1491      1494      1495      1486      1499
      1496      1495      1497      1496      1495      1498      1497      1495      1498
      1499      1502      1503      1499      1502      1504      1499      1502      1509
      1500      1499      1501      1500      1499      1502      1501      1499      1502
      1502      1509      1505      1503      1502      1504      1503      1502      1509
      1504      1502      1509      1505      1508      1510      1506      1505      1507
      1506      1505      1508      1506      1505      1509      1507      1505      1508
      1507      1505      1509      1508      1505      1509      1508      1510      1511
      1508      1510      1512      1508      1510      1515      1510      1515      1513
      1510      1515      1516      1510      1515      1517      1511      1510      1512
      1511      1510      1515      1512      1510      1515      1513      1515      1516
      1513      1515      1517      1513      1565      1566      1513      1565      1567
      1514      1513      1515      1514      1513      1565      1515      1513      1565
      1515      1517      1518      1515      1517      1519      1515      1517      1521
      1516      1515      1517      1517      1519      1520      1517      1521      1522
      1517      1521      1523      1518      1517      1519      1518      1517      1521
      1519      1517      1521      1521      1523      1524      1521      1523      1525
      1522      1521      1523      1523      1525      1526      1523      1525      1527
      1523      1525      1528      1524      1523      1525      1525      1528      1529
      1525      1528      1530      1525      1528      1531      1526      1525      1527
      1526      1525      1528      1527      1525      1528      1528      1531      1532
      1528      1531      1533      1528      1531      1534      1529      1528      1530
      1529      1528      1531      1530      1528      1531      1531      1534      1535
      1531      1534      1536      1531      1534      1537      1532      1531      1533
      1532      1531      1534      1533      1531      1534      1534      1537      1538
      1534      1537      1539      1534      1537      1540      1535      1534      1536
      1535      1534      1537      1536      1534      1537      1537      1540      1541
      1537      1540      1542      1537      1540      1543      1538      1537      1539
      1538      1537      1540      1539      1537      1540      1540      1543      1544
      1540      1543      1545      1540      1543      1546      1541      1540      1542
      1541      1540      1543      1542      1540      1543      1543      1546      1547
      1543      1546      1548      1543      1546      1549      1544      1543      1545
      1544      1543      1546      1545      1543      1546      1546      1549      1550
      1546      1549      1551      1546      1549      1552      1547      1546      1548
      1547      1546      1549      1548      1546      1549      1549      1552      1553
      1549      1552      1554      1549      1552      1555      1550      1549      1551
      1550      1549      1552      1551      1549      1552      1552      1555      1556
      1552      1555      1557      1552      1555      1558      1553      1552      1554
      1553      1552      1555      1554      1552      1555      1555      1558      1559
      1555      1558      1560      1555      1558      1561      1556      1555      1557
      1556      1555      1558      1557      1555      1558      1558      1561      1562
      1558      1561      1563      1558      1561      1564      1559      1558      1560
      1559      1558      1561      1560      1558      1561      1562      1561      1563
      1562      1561      1564      1563      1561      1564      1565      1567      1568
      1565      1567      1569      1565      1567      1570      1566      1565      1567
      1567      1570      1571      1567      1570      1572      1567      1570      1573
      1568      1567      1569      1568      1567      1570      1569      1567      1570
      1570      1573      1574      1570      1573      1575      1570      1573      1576
      1571      1570      1572      1571      1570      1573      1572      1570      1573
      1573      1576      1577      1573      1576      1578      1573      1576      1579
      1574      1573      1575      1574      1573      1576      1575      1573      1576
      1576      1579      1580      1576      1579      1581      1576      1579      1582
      1577      1576      1578      1577      1576      1579      1578      1576      1579
      1579      1582      1583      1579      1582      1584      1579      1582      1585
      1580      1579      1581      1580      1579      1582      1581      1579      1582
      1582      1585      1586      1582      1585      1587      1582      1585      1588
      1583      1582      1584      1583      1582      1585      1584      1582      1585
      1585      1588      1589      1585      1588      1590      1586      1585      1587
      1586      1585      1588      1587      1585      1588      1588      1590      1591
      1588      1590      1592      1589      1588      1590      1590      1592      1593
      1590      1592      1594      1590      1592      1595      1591      1590      1592
      1592      1595      1596      1592      1595      1597      1592      1595      1598
      1593      1592      1594      1593      1592      1595      1594      1592      1595
      1595      1598      1599      1595      1598      1600      1595      1598      1601
      1596      1595      1597      1596      1595      1598      1597      1595      1598
      1598      1601      1602      1598      1601      1603      1598      1601      1604
      1599      1598      1600      1599      1598      1601      1600      1598      1601
      1601      1604      1605      1601      1604      1606      1601      1604      1607
      1602      1601      1603      1602      1601      1604      1603      1601      1604
      1604      1607      1608      1604      1607      1609      1604      1607      1610
      1605      1604      1606      1605      1604      1607      1606      1604      1607
      1607      1610      1611      1607      1610      1612      1607      1610      1613
      1608      1607      1609      1608      1607      1610      1609      1607      1610
      1610      1613      1614      1610      1613      1615      1610      1613      1616
      1611      1610      1612      1611      1610      1613      1612      1610      1613
      1614      1613      1615      1614      1613      1616      1615      1613      1616
      1617      1621      1622      1617      1621      1623      1617      1621      1624
      1618      1617      1619      1618      1617      1620      1618      1617      1621
      1619      1617      1620      1619      1617      1621      1620      1617      1621
      1621      1624      1625      1621      1624      1626      1621      1624      1630
      1622      1621      1623      1622      1621      1624      1623      1621      1624
      1624      1630      1627      1625      1624      1626      1625      1624      1630
      1626      1624      1630      1627      1631      1632      1628      1627      1629
      1628      1627      1630      1628      1627      1631      1629      1627      1630
      1629      1627      1631      1630      1627      1631      1631      1632      1633
      1631      1632      1634      1631      1632      1635      1632      1635      1636
      1632      1635      1637      1632      1635      1643      1633      1632      1634
      1633      1632      1635      1634      1632      1635      1635      1637      1638
      1635      1643      1644      1635      1643      1645      1635      1643      1646
      1636      1635      1637      1636      1635      1643      1637      1635      1643
      1637      1638      1639      1637      1638      1640      1638      1640      1641
      1638      1640      1642      1638      1640      1652      1639      1638      1640
      1640      1652      1653      1640      1652      1654      1640      1652      1655
      1641      1640      1642      1641      1640      1652      1642      1640      1652
      1643      1646      1647      1644      1643      1645      1644      1643      1646
      1645      1643      1646      1646      1647      1648      1646      1647      1649
      1647      1649      1650      1647      1649      1651      1647      1649      1699
      1648      1647      1649      1649      1699      1700      1649      1699      1701
      1649      1699      1702      1650      1649      1651      1650      1649      1699
      1651      1649      1699      1652      1655      1656      1652      1655      1657
      1652      1655      1658      1653      1652      1654      1653      1652      1655
      1654      1652      1655      1655      1658      1659      1655      1658      1660
      1655      1658      1661      1656      1655      1657      1656      1655      1658
      1657      1655      1658      1658      1661      1662      1658      1661      1663
      1658      1661      1664      1659      1658      1660      1659      1658      1661
      1660      1658      1661      1661      1664      1665      1661      1664      1666
      1661      1664      1667      1662      1661      1663      1662      1661      1664
      1663      1661      1664      1664      1667      1668      1664      1667      1669
      1664      1667      1670      1665      1664      1666      1665      1664      1667
      1666      1664      1667      1667      1670      1671      1667      1670      1672
      1668      1667      1669      1668      1667      1670      1669      1667      1670
      1670      1672      1673      1670      1672      1674      1671      1670      1672
      1672      1674      1675      1672      1674      1676      1672      1674      1677
      1673      1672      1674      1674      1677      1678      1674      1677      1679
      1674      1677      1680      1675      1674      1676      1675      1674      1677
      1676      1674      1677      1677      1680      1681      1677      1680      1682
      1677      1680      1683      1678      1677      1679      1678      1677      1680
      1679      1677      1680      1680      1683      1684      1680      1683      1685
      1680      1683      1686      1681      1680      1682      1681      1680      1683
      1682      1680      1683      1683      1686      1687      1683      1686      1688
      1683      1686      1689      1684      1683      1685      1684      1683      1686
      1685      1683      1686      1686      1689      1690      1686      1689      1691
      1686      1689      1692      1687      1686      1688      1687      1686      1689
      1688      1686      1689      1689      1692      1693      1689      1692      1694
      1689      1692      1695      1690      1689      1691      1690      1689      1692
      1691      1689      1692      1692      1695      1696      1692      1695      1697
      1692      1695      1698      1693      1692      1694      1693      1692      1695
      1694      1692      1695      1696      1695      1697      1696      1695      1698
      1697      1695      1698      1699      1702      1703      1699      1702      1704
      1699      1702      1705      1700      1699      1701      1700      1699      1702
      1701      1699      1702      1702      1705      1706      1702      1705      1707
      1702      1705      1708      1703      1702      1704      1703      1702      1705
      1704      1702      1705      1705      1708      1709      1705      1708      1710
      1705      1708      1711      1706      1705      1707      1706      1705      1708
      1707      1705      1708      1708      1711      1712      1708      1711      1713
      1708      1711      1714      1709      1708      1710      1709      1708      1711
      1710      1708      1711      1711      1714      1715      1711      1714      1716
      1711      1714      1717      1712      1711      1713      1712      1711      1714
      1713      1711      1714      1714      1717      1718      1714      1717      1719
      1714      1717      1720      1715      1714      1716      1715      1714      1717
      1716      1714      1717      1717      1720      1721      1717      1720      1722
      1717      1720      1723      1718      1717      1719      1718      1717      1720
      1719      1717      1720      1720      1723      1724      1720      1723      1725
      1720      1723      1726      1721      1720      1722      1721      1720      1723
      1722      1720      1723      1723      1726      1727      1723      1726      1728
      1723      1726      1729      1724      1723      1725      1724      1723      1726
      1725      1723      1726      1726      1729      1730      1726      1729      1731
      1726      1729      1732      1727      1726      1728      1727      1726      1729
      1728      1726      1729      1729      1732      1733      1729      1732      1734
      1729      1732      1735      1730      1729      1731      1730      1729      1732
      1731      1729      1732      1732      1735      1736      1732      1735      1737
      1732      1735      1738      1733      1732      1734      1733      1732      1735
      1734      1732      1735      1735      1738      1739      1735      1738      1740
      1735      1738      1741      1736      1735      1737      1736      1735      1738
      1737      1735      1738      1738      1741      1742      1738      1741      1743
      1738      1741      1744      1739      1738      1740      1739      1738      1741
      1740      1738      1741      1741      1744      1745      1741      1744      1746
      1741      1744      1747      1742      1741      1743      1742      1741      1744
      1743      1741      1744      1745      1744      1746      1745      1744      1747
      1746      1744      1747      1748      1752      1753      1748      1752      1754
      1748      1752      1757      1749      1748      1750      1749      1748      1751
      1749      1748      1752      1750      1748      1751      1750      1748      1752
      1751      1748      1752      1752      1754      1755      1752      1754      1756
      1752      1757      1758      1752      1757      1759      1752      1757      1763
      1753      1752      1754      1753      1752      1757      1754      1752      1757
      1755      1754      1756      1757      1763      1760      1758      1757      1759
      1758      1757      1763      1759      1757      1763      1760      1764      1765
      1761      1760      1762      1761      1760      1763      1761      1760      1764
      1762      1760      1763      1762      1760      1764      1763      1760      1764
      1764      1765      1766      1764      1765      1767      1764      1765      1768
      1765      1768      1769      1765      1768      1770      1765      1768      1776
      1766      1765      1767      1766      1765      1768      1767      1765      1768
      1768      1770      1771      1768      1776      1777      1768      1776      1778
      1768      1776      1779      1769      1768      1770      1769      1768      1776
      1770      1768      1776      1770      1771      1772      1770      1771      1773
      1771      1773      1774      1771      1773      1775      1771      1773      1785
      1772      1771      1773      1773      1785      1786      1773      1785      1787
      1773      1785      1788      1774      1773      1775      1774      1773      1785
      1775      1773      1785      1776      1779      1780      1777      1776      1778
      1777      1776      1779      1778      1776      1779      1779      1780      1781
      1779      1780      1782      1780      1782      1783      1780      1782      1784
      1780      1782      1832      1781      1780      1782      1782      1832      1833
      1782      1832      1834      1782      1832      1835      1783      1782      1784
      1783      1782      1832      1784      1782      1832      1785      1788      1789
      1785      1788      1790      1785      1788      1791      1786      1785      1787
      1786      1785      1788      1787      1785      1788      1788      1791      1792
      1788      1791      1793      1789      1788      1790      1789      1788      1791
      1790      1788      1791      1791      1793      1794      1791      1793      1795
      1792      1791      1793      1793      1795      1796      1793      1795      1797
      1793      1795      1798      1794      1793      1795      1795      1798      1799
      1795      1798      1800      1796      1795      1797      1796      1795      1798
      1797      1795      1798      1798      1800      1801      1798      1800      1802
      1799      1798      1800      1800      1802      1803      1800      1802      1804
      1800      1802      1805      1801      1800      1802      1802      1805      1806
      1802      1805      1807      1803      1802      1804      1803      1802      1805
      1804      1802      1805      1805      1807      1808      1805      1807      1809
      1806      1805      1807      1807      1809      1810      1807      1809      1811
      1807      1809      1812      1808      1807      1809      1809      1812      1813
      1809      1812      1814      1810      1809      1811      1810      1809      1812
      1811      1809      1812      1812      1814      1815      1812      1814      1816
      1813      1812      1814      1814      1816      1817      1814      1816      1818
      1814      1816      1819      1815      1814      1816      1816      1819      1820
      1816      1819      1821      1816      1819      1822      1817      1816      1818
      1817      1816      1819      1818      1816      1819      1819      1822      1823
      1819      1822      1824      1819      1822      1825      1820      1819      1821
      1820      1819      1822      1821      1819      1822      1822      1825      1826
      1822      1825      1827      1822      1825      1828      1823      1822      1824
      1823      1822      1825      1824      1822      1825      1825      1828      1829
      1825      1828      1830      1825      1828      1831      1826      1825      1827
      1826      1825      1828      1827      1825      1828      1829      1828      1830
      1829      1828      1831      1830      1828      1831      1832      1835      1836
      1832      1835      1837      1832      1835      1838      1833      1832      1834
      1833      1832      1835      1834      1832      1835      1835      1838      1839
      1835      1838      1840      1835      1838      1841      1836      1835      1837
      1836      1835      1838      1837      1835      1838      1838      1841      1842
      1838      1841      1843      1838      1841      1844      1839      1838      1840
      1839      1838      1841      1840      1838      1841      1841      1844      1845
      1841      1844      1846      1841      1844      1847      1842      1841      1843
      1842      1841      1844      1843      1841      1844      1844      1847      1848
      1844      1847      1849      1844      1847      1850      1845      1844      1846
      1845      1844      1847      1846      1844      1847      1847      1850      1851
      1847      1850      1852      1847      1850      1853      1848      1847      1849
      1848      1847      1850      1849      1847      1850      1850      1853      1854
      1850      1853      1855      1850      1853      1856      1851      1850      1852
      1851      1850      1853      1852      1850      1853      1853      1856      1857
      1853      1856      1858      1853      1856      1859      1854      1853      1855
      1854      1853      1856      1855      1853      1856      1856      1859      1860
      1856      1859      1861      1856      1859      1862      1857      1856      1858
      1857      1856      1859      1858      1856      1859      1859      1862      1863
      1859      1862      1864      1859      1862      1865      1860      1859      1861
      1860      1859      1862      1861      1859      1862      1862      1865      1866
      1862      1865      1867      1862      1865      1868      1863      1862      1864
      1863      1862      1865      1864      1862      1865      1865      1868      1869
      1865      1868      1870      1865      1868      1871      1866      1865      1867
      1866      1865      1868      1867      1865      1868      1868      1871      1872
      1868      1871      1873      1868      1871      1874      1869      1868      1870
      1869      1868      1871      1870      1868      1871      1871      1874      1875
      1871      1874      1876      1871      1874      1877      1872      1871      1873
      1872      1871      1874      1873      1871      1874      1874      1877      1878
      1874      1877      1879      1874      1877      1880      1875      1874      1876
      1875      1874      1877      1876      1874      1877      1878      1877      1879
      1878      1877      1880      1879      1877      1880      1881      1882      1883
      1881      1882      1884      1881      1882      1897      1881      1885      1886
      1881      1885      1887      1881      1885      1888      1881      1889      1890
      1881      1889      1891      1881      1889      1892      1881      1893      1894
      1881      1893      1895      1881      1893      1896      1882      1881      1885
      1882      1881      1889      1882      1881      1893      1882      1897      1898
      1882      1897      1899      1882      1897      1903      1883      1882      1884
      1883      1882      1897      1884      1882      1897      1885      1881      1889
      1885      1881      1893      1886      1885      1887      1886      1885      1888
      1887      1885      1888      1889      1881      1893      1890      1889      1891
      1890      1889      1892      1891      1889      1892      1894      1893      1895
      1894      1893      1896      1895      1893      1896      1897      1903      1900
      1898      1897      1899      1898      1897      1903      1899      1897      1903
      1900      1904      1905      1901      1900      1902      1901      1900      1903
      1901      1900      1904      1902      1900      1903      1902      1900      1904
      1903      1900      1904      1904      1905      1906      1904      1905      1907
      1904      1905      1908      1905      1908      1909      1905      1908      1910
      1905      1908      1916      1906      1905      1907      1906      1905      1908
      1907      1905      1908      1908      1910      1911      1908      1916      1917
      1908      1916      1918      1908      1916      1919      1909      1908      1910
      1909      1908      1916      1910      1908      1916      1910      1911      1912
      1910      1911      1913      1911      1913      1914      1911      1913      1915
      1911      1913      1925      1912      1911      1913      1913      1925      1926
      1913      1925      1927      1913      1925      1928      1914      1913      1915
      1914      1913      1925      1915      1913      1925      1916      1919      1920
      1917      1916      1918      1917      1916      1919      1918      1916      1919
      1919      1920      1921      1919      1920      1922      1920      1922      1923
      1920      1922      1924      1920      1922      1972      1921      1920      1922
      1922      1972      1973      1922      1972      1974      1922      1972      1975
      1923      1922      1924      1923      1922      1972      1924      1922      1972
      1925      1928      1929      1925      1928      1930      1925      1928      1931
      1926      1925      1927      1926      1925      1928      1927      1925      1928
      1928      1931      1932      1928      1931      1933      1929      1928      1930
      1929      1928      1931      1930      1928      1931      1931      1933      1934
      1931      1933      1935      1932      1931      1933      1933      1935      1936
      1933      1935      1937      1933      1935      1938      1934      1933      1935
      1935      1938      1939      1935      1938      1940      1936      1935      1937
      1936      1935      1938      1937      1935      1938      1938      1940      1941
      1938      1940      1942      1939      1938      1940      1940      1942      1943
      1940      1942      1944      1940      1942      1945      1941      1940      1942
      1942      1945      1946      1942      1945      1947      1943      1942      1944
      1943      1942      1945      1944      1942      1945      1945      1947      1948
      1945      1947      1949      1946      1945      1947      1947      1949      1950
      1947      1949      1951      1947      1949      1952      1948      1947      1949
      1949      1952      1953      1949      1952      1954      1950      1949      1951
      1950      1949      1952      1951      1949      1952      1952      1954      1955
      1952      1954      1956      1953      1952      1954      1954      1956      1957
      1954      1956      1958      1954      1956      1959      1955      1954      1956
      1956      1959      1960      1956      1959      1961      1956      1959      1962
      1957      1956      1958      1957      1956      1959      1958      1956      1959
      1959      1962      1963      1959      1962      1964      1959      1962      1965
      1960      1959      1961      1960      1959      1962      1961      1959      1962
      1962      1965      1966      1962      1965      1967      1962      1965      1968
      1963      1962      1964      1963      1962      1965      1964      1962      1965
      1965      1968      1969      1965      1968      1970      1965      1968      1971
      1966      1965      1967      1966      1965      1968      1967      1965      1968
      1969      1968      1970      1969      1968      1971      1970      1968      1971
      1972      1975      1976      1972      1975      1977      1972      1975      1978
      1973      1972      1974      1973      1972      1975      1974      1972      1975
      1975      1978      1979      1975      1978      1980      1975      1978      1981
      1976      1975      1977      1976      1975      1978      1977      1975      1978
      1978      1981      1982      1978      1981      1983      1978      1981      1984
      1979      1978      1980      1979      1978      1981      1980      1978      1981
      1981      1984      1985      1981      1984      1986      1981      1984      1987
      1982      1981      1983      1982      1981      1984      1983      1981      1984
      1984      1987      1988      1984      1987      1989      1984      1987      1990
      1985      1984      1986      1985      1984      1987      1986      1984      1987
      1987      1990      1991      1987      1990      1992      1987      1990      1993
      1988      1987      1989      1988      1987      1990      1989      1987      1990
      1990      1993      1994      1990      1993      1995      1990      1993      1996
      1991      1990      1992      1991      1990      1993      1992      1990      1993
      1993      1996      1997      1993      1996      1998      1993      1996      1999
      1994      1993      1995      1994      1993      1996      1995      1993      1996
      1996      1999      2000      1996      1999      2001      1996      1999      2002
      1997      1996      1998      1997      1996      1999      1998      1996      1999
      1999      2002      2003      1999      2002      2004      1999      2002      2005
      2000      1999      2001      2000      1999      2002      2001      1999      2002
      2002      2005      2006      2002      2005      2007      2002      2005      2008
      2003      2002      2004      2003      2002      2005      2004      2002      2005
      2005      2008      2009      2005      2008      2010      2005      2008      2011
      2006      2005      2007      2006      2005      2008      2007      2005      2008
      2008      2011      2012      2008      2011      2013      2008      2011      2014
      2009      2008      2010      2009      2008      2011      2010      2008      2011
      2011      2014      2015      2011      2014      2016      2011      2014      2017
      2012      2011      2013      2012      2011      2014      2013      2011      2014
      2014      2017      2018      2014      2017      2019      2014      2017      2020
      2015      2014      2016      2015      2014      2017      2016      2014      2017
      2018      2017      2019      2018      2017      2020      2019      2017      2020
      2021      2023      2024      2021      2025      2026      2021      2025      2027
      2021      2025      2028      2021      2067      2064      2021      2067      2068
      2021      2067      2069      2022      2021      2023      2022      2021      2025
      2022      2021      2067      2023      2021      2025      2023      2021      2067
      2025      2021      2067      2025      2028      2029      2025      2028      2059
      2026      2025      2027      2026      2025      2028      2027      2025      2028
      2028      2029      2030      2028      2029      2031      2028      2059      2057
      2028      2059      2060      2028      2059      2064      2029      2028      2059
      2029      2031      2032      2029      2031      2033      2029      2031      2034
      2030      2029      2031      2031      2034      2035      2031      2034      2036
      2031      2034      2057      2032      2031      2033      2032      2031      2034
      2033      2031      2034      2034      2036      2037      2034      2036      2038
      2034      2036      2046      2034      2057      2054      2034      2057      2058
      2034      2057      2059      2035      2034      2036      2035      2034      2057
      2036      2034      2057      2036      2038      2039      2036      2038      2040
      2036      2038      2041      2036      2046      2044      2036      2046      2047
      2036      2046      2051      2037      2036      2038      2037      2036      2046
      2038      2036      2046      2038      2041      2042      2038      2041      2043
      2038      2041      2044      2039      2038      2040      2039      2038      2041
      2040      2038      2041      2041      2044      2045      2041      2044      2046
      2041      2044      2070      2042      2041      2043      2042      2041      2044
      2043      2041      2044      2044      2046      2047      2044      2046      2051
      2044      2070      2071      2044      2070      2072      2044      2070      2076
      2045      2044      2046      2045      2044      2070      2046      2044      2070
      2046      2047      2048      2046      2047      2049      2046      2047      2050
      2046      2051      2052      2046      2051      2053      2046      2051      2054
      2047      2046      2051      2048      2047      2049      2048      2047      2050
      2049      2047      2050      2051      2054      2055      2051      2054      2056
      2051      2054      2057      2052      2051      2053      2052      2051      2054
      2053      2051      2054      2054      2057      2058      2054      2057      2059
      2055      2054      2056      2055      2054      2057      2056      2054      2057
      2057      2059      2060      2057      2059      2064      2058      2057      2059
      2059      2060      2061      2059      2060      2062      2059      2060      2063
      2059      2064      2065      2059      2064      2066      2059      2064      2067
      2060      2059      2064      2061      2060      2062      2061      2060      2063
      2062      2060      2063      2064      2067      2068      2064      2067      2069
      2065      2064      2066      2065      2064      2067      2066      2064      2067
      2068      2067      2069      2070      2072      2073      2070      2072      2074
      2070      2072      2075      2070      2076      2077      2070      2076      2078
      2070      2076      2079      2071      2070      2072      2071      2070      2076
      2072      2070      2076      2073      2072      2074      2073      2072      2075
      2074      2072      2075      2076      2079      2080      2076      2079      2081
      2076      2079      2082      2077      2076      2078      2077      2076      2079
      2078      2076      2079      2079      2082      2083      2079      2082      2084
      2079      2082      2085      2080      2079      2081      2080      2079      2082
      2081      2079      2082      2082      2085      2086      2082      2085      2087
      2082      2085      2091      2083      2082      2084      2083      2082      2085
      2084      2082      2085      2085      2087      2088      2085      2087      2089
      2085      2087      2090      2085      2091      2092      2085      2091      2093
      2085      2091      2094      2086      2085      2087      2086      2085      2091
      2087      2085      2091      2088      2087      2089      2088      2087      2090
      2089      2087      2090      2092      2091      2093      2092      2091      2094
      2093      2091      2094      2095      2096      2097      2095      2096      2098
      2095      2096      2099      2095      2100      2101      2095      2100      2102
      2095      2100      2103      2095      2104      2105      2095      2104      2106
      2095      2104      2107      2095      2108      2109      2095      2108      2110
      2095      2108      2111      2096      2095      2100      2096      2095      2104
      2096      2095      2108      2097      2096      2098      2097      2096      2099
      2098      2096      2099      2100      2095      2104      2100      2095      2108
      2101      2100      2102      2101      2100      2103      2102      2100      2103
      2104      2095      2108      2105      2104      2106      2105      2104      2107
      2106      2104      2107      2108      2111      2112      2108      2111      2113
      2108      2111      2118      2109      2108      2110      2109      2108      2111
      2110      2108      2111      2111      2118      2114      2112      2111      2113
      2112      2111      2118      2113      2111      2118      2114      2117      2119
      2115      2114      2116      2115      2114      2117      2115      2114      2118
      2116      2114      2117      2116      2114      2118      2117      2114      2118
      2117      2119      2120      2117      2119      2121      2117      2119      2124
      2119      2124      2122      2119      2124      2125      2119      2124      2126
      2120      2119      2121      2120      2119      2124      2121      2119      2124
      2122      2124      2125      2122      2124      2126      2122      2174      2175
      2122      2174      2176      2123      2122      2124      2123      2122      2174
      2124      2122      2174      2124      2126      2127      2124      2126      2128
      2124      2126      2130      2125      2124      2126      2126      2128      2129
      2126      2130      2131      2126      2130      2132      2127      2126      2128
      2127      2126      2130      2128      2126      2130      2130      2132      2133
      2130      2132      2134      2131      2130      2132      2132      2134      2135
      2132      2134      2136      2132      2134      2137      2133      2132      2134
      2134      2137      2138      2134      2137      2139      2134      2137      2140
      2135      2134      2136      2135      2134      2137      2136      2134      2137
      2137      2140      2141      2137      2140      2142      2137      2140      2143
      2138      2137      2139      2138      2137      2140      2139      2137      2140
      2140      2143      2144      2140      2143      2145      2140      2143      2146
      2141      2140      2142      2141      2140      2143      2142      2140      2143
      2143      2146      2147      2143      2146      2148      2143      2146      2149
      2144      2143      2145      2144      2143      2146      2145      2143      2146
      2146      2149      2150      2146      2149      2151      2146      2149      2152
      2147      2146      2148      2147      2146      2149      2148      2146      2149
      2149      2152      2153      2149      2152      2154      2149      2152      2155
      2150      2149      2151      2150      2149      2152      2151      2149      2152
      2152      2155      2156      2152      2155      2157      2152      2155      2158
      2153      2152      2154      2153      2152      2155      2154      2152      2155
      2155      2158      2159      2155      2158      2160      2155      2158      2161
      2156      2155      2157      2156      2155      2158      2157      2155      2158
      2158      2161      2162      2158      2161      2163      2158      2161      2164
      2159      2158      2160      2159      2158      2161      2160      2158      2161
      2161      2164      2165      2161      2164      2166      2161      2164      2167
      2162      2161      2163      2162      2161      2164      2163      2161      2164
      2164      2167      2168      2164      2167      2169      2164      2167      2170
      2165      2164      2166      2165      2164      2167      2166      2164      2167
      2167      2170      2171      2167      2170      2172      2167      2170      2173
      2168      2167      2169      2168      2167      2170      2169      2167      2170
      2171      2170      2172      2171      2170      2173      2172      2170      2173
      2174      2176      2177      2174      2176      2178      2174      2176      2179
      2175      2174      2176      2176      2179      2180      2176      2179      2181
      2176      2179      2182      2177      2176      2178      2177      2176      2179
      2178      2176      2179      2179      2182      2183      2179      2182      2184
      2179      2182      2185      2180      2179      2181      2180      2179      2182
      2181      2179      2182      2182      2185      2186      2182      2185      2187
      2182      2185      2188      2183      2182      2184      2183      2182      2185
      2184      2182      2185      2185      2188      2189      2185      2188      2190
      2185      2188      2191      2186      2185      2187      2186      2185      2188
      2187      2185      2188      2188      2191      2192      2188      2191      2193
      2188      2191      2194      2189      2188      2190      2189      2188      2191
      2190      2188      2191      2191      2194      2195      2191      2194      2196
      2191      2194      2197      2192      2191      2193      2192      2191      2194
      2193      2191      2194      2194      2197      2198      2194      2197      2199
      2195      2194      2196      2195      2194      2197      2196      2194      2197
      2197      2199      2200      2197      2199      2201      2198      2197      2199
      2199      2201      2202      2199      2201      2203      2199      2201      2204
      2200      2199      2201      2201      2204      2205      2201      2204      2206
      2201      2204      2207      2202      2201      2203      2202      2201      2204
      2203      2201      2204      2204      2207      2208      2204      2207      2209
      2204      2207      2210      2205      2204      2206      2205      2204      2207
      2206      2204      2207      2207      2210      2211      2207      2210      2212
      2207      2210      2213      2208      2207      2209      2208      2207      2210
      2209      2207      2210      2210      2213      2214      2210      2213      2215
      2210      2213      2216      2211      2210      2212      2211      2210      2213
      2212      2210      2213      2213      2216      2217      2213      2216      2218
      2213      2216      2219      2214      2213      2215      2214      2213      2216
      2215      2213      2216      2216      2219      2220      2216      2219      2221
      2216      2219      2222      2217      2216      2218      2217      2216      2219
      2218      2216      2219      2219      2222      2223      2219      2222      2224
      2219      2222      2225      2220      2219      2221      2220      2219      2222
      2221      2219      2222      2223      2222      2224      2223      2222      2225
      2224      2222      2225      2226      2227      2228      2226      2227      2229
      2226      2227      2230      2226      2231      2232      2226      2231      2233
      2226      2231      2234      2226      2235      2236      2226      2235      2237
      2226      2235      2238      2226      2239      2240      2226      2239      2241
      2226      2239      2242      2227      2226      2231      2227      2226      2235
      2227      2226      2239      2228      2227      2229      2228      2227      2230
      2229      2227      2230      2231      2226      2235      2231      2226      2239
      2232      2231      2233      2232      2231      2234      2233      2231      2234
      2235      2226      2239      2236      2235      2237      2236      2235      2238
      2237      2235      2238      2239      2242      2243      2239      2242      2244
      2239      2242      2248      2240      2239      2241      2240      2239      2242
      2241      2239      2242      2242      2248      2245      2243      2242      2244
      2243      2242      2248      2244      2242      2248      2245      2249      2250
      2246      2245      2247      2246      2245      2248      2246      2245      2249
      2247      2245      2248      2247      2245      2249      2248      2245      2249
      2249      2250      2251      2249      2250      2252      2249      2250      2253
      2250      2253      2254      2250      2253      2255      2250      2253      2261
      2251      2250      2252      2251      2250      2253      2252      2250      2253
      2253      2255      2256      2253      2261      2262      2253      2261      2263
      2253      2261      2264      2254      2253      2255      2254      2253      2261
      2255      2253      2261      2255      2256      2257      2255      2256      2258
      2256      2258      2259      2256      2258      2260      2256      2258      2270
      2257      2256      2258      2258      2270      2271      2258      2270      2272
      2258      2270      2273      2259      2258      2260      2259      2258      2270
      2260      2258      2270      2261      2264      2265      2262      2261      2263
      2262      2261      2264      2263      2261      2264      2264      2265      2266
      2264      2265      2267      2265      2267      2268      2265      2267      2269
      2265      2267      2315      2266      2265      2267      2267      2315      2316
      2267      2315      2317      2267      2315      2318      2268      2267      2269
      2268      2267      2315      2269      2267      2315      2270      2273      2274
      2270      2273      2275      2270      2273      2276      2271      2270      2272
      2271      2270      2273      2272      2270      2273      2273      2276      2277
      2273      2276      2278      2273      2276      2279      2274      2273      2275
      2274      2273      2276      2275      2273      2276      2276      2279      2280
      2276      2279      2281      2276      2279      2282      2277      2276      2278
      2277      2276      2279      2278      2276      2279      2279      2282      2283
      2279      2282      2284      2279      2282      2285      2280      2279      2281
      2280      2279      2282      2281      2279      2282      2282      2285      2286
      2282      2285      2287      2282      2285      2288      2283      2282      2284
      2283      2282      2285      2284      2282      2285      2285      2288      2289
      2285      2288      2290      2286      2285      2287      2286      2285      2288
      2287      2285      2288      2288      2290      2291      2288      2290      2292
      2289      2288      2290      2290      2292      2293      2290      2292      2294
      2290      2292      2295      2291      2290      2292      2292      2295      2296
      2292      2295      2297      2293      2292      2294      2293      2292      2295
      2294      2292      2295      2295      2297      2298      2295      2297      2299
      2296      2295      2297      2297      2299      2300      2297      2299      2301
      2297      2299      2302      2298      2297      2299      2299      2302      2303
      2299      2302      2304      2299      2302      2305      2300      2299      2301
      2300      2299      2302      2301      2299      2302      2302      2305      2306
      2302      2305      2307      2302      2305      2308      2303      2302      2304
      2303      2302      2305      2304      2302      2305      2305      2308      2309
      2305      2308      2310      2305      2308      2311      2306      2305      2307
      2306      2305      2308      2307      2305      2308      2308      2311      2312
      2308      2311      2313      2308      2311      2314      2309      2308      2310
      2309      2308      2311      2310      2308      2311      2312      2311      2313
      2312      2311      2314      2313      2311      2314      2315      2318      2319
      2315      2318      2320      2315      2318      2321      2316      2315      2317
      2316      2315      2318      2317      2315      2318      2318      2321      2322
      2318      2321      2323      2318      2321      2324      2319      2318      2320
      2319      2318      2321      2320      2318      2321      2321      2324      2325
      2321      2324      2326      2321      2324      2327      2322      2321      2323
      2322      2321      2324      2323      2321      2324      2324      2327      2328
      2324      2327      2329      2324      2327      2330      2325      2324      2326
      2325      2324      2327      2326      2324      2327      2327      2330      2331
      2327      2330      2332      2327      2330      2333      2328      2327      2329
      2328      2327      2330      2329      2327      2330      2330      2333      2334
      2330      2333      2335      2330      2333      2336      2331      2330      2332
      2331      2330      2333      2332      2330      2333      2333      2336      2337
      2333      2336      2338      2333      2336      2339      2334      2333      2335
      2334      2333      2336      2335      2333      2336      2336      2339      2340
      2336      2339      2341      2336      2339      2342      2337      2336      2338
      2337      2336      2339      2338      2336      2339      2339      2342      2343
      2339      2342      2344      2339      2342      2345      2340      2339      2341
      2340      2339      2342      2341      2339      2342      2342      2345      2346
      2342      2345      2347      2342      2345      2348      2343      2342      2344
      2343      2342      2345      2344      2342      2345      2345      2348      2349
      2345      2348      2350      2345      2348      2351      2346      2345      2347
      2346      2345      2348      2347      2345      2348      2348      2351      2352
      2348      2351      2353      2348      2351      2354      2349      2348      2350
      2349      2348      2351      2350      2348      2351      2351      2354      2355
      2351      2354      2356      2351      2354      2357      2352      2351      2353
      2352      2351      2354      2353      2351      2354      2354      2357      2358
      2354      2357      2359      2354      2357      2360      2355      2354      2356
      2355      2354      2357      2356      2354      2357      2357      2360      2361
      2357      2360      2362      2357      2360      2363      2358      2357      2359
      2358      2357      2360      2359      2357      2360      2361      2360      2362
      2361      2360      2363      2362      2360      2363      2364      2366      2367
      2364      2368      2369      2364      2368      2370      2364      2368      2371
      2364      2410      2407      2364      2410      2411      2364      2410      2412
      2365      2364      2366      2365      2364      2368      2365      2364      2410
      2366      2364      2368      2366      2364      2410      2368      2364      2410
      2368      2371      2372      2368      2371      2402      2369      2368      2370
      2369      2368      2371      2370      2368      2371      2371      2372      2373
      2371      2372      2374      2371      2402      2400      2371      2402      2403
      2371      2402      2407      2372      2371      2402      2372      2374      2375
      2372      2374      2376      2372      2374      2377      2373      2372      2374
      2374      2377      2378      2374      2377      2379      2374      2377      2400
      2375      2374      2376      2375      2374      2377      2376      2374      2377
      2377      2379      2380      2377      2379      2381      2377      2379      2389
      2377      2400      2397      2377      2400      2401      2377      2400      2402
      2378      2377      2379      2378      2377      2400      2379      2377      2400
      2379      2381      2382      2379      2381      2383      2379      2381      2384
      2379      2389      2387      2379      2389      2390      2379      2389      2394
      2380      2379      2381      2380      2379      2389      2381      2379      2389
      2381      2384      2385      2381      2384      2386      2381      2384      2387
      2382      2381      2383      2382      2381      2384      2383      2381      2384
      2384      2387      2388      2384      2387      2389      2384      2387      2413
      2385      2384      2386      2385      2384      2387      2386      2384      2387
      2387      2389      2390      2387      2389      2394      2387      2413      2414
      2387      2413      2415      2387      2413      2419      2388      2387      2389
      2388      2387      2413      2389      2387      2413      2389      2390      2391
      2389      2390      2392      2389      2390      2393      2389      2394      2395
      2389      2394      2396      2389      2394      2397      2390      2389      2394
      2391      2390      2392      2391      2390      2393      2392      2390      2393
      2394      2397      2398      2394      2397      2399      2394      2397      2400
      2395      2394      2396      2395      2394      2397      2396      2394      2397
      2397      2400      2401      2397      2400      2402      2398      2397      2399
      2398      2397      2400      2399      2397      2400      2400      2402      2403
      2400      2402      2407      2401      2400      2402      2402      2403      2404
      2402      2403      2405      2402      2403      2406      2402      2407      2408
      2402      2407      2409      2402      2407      2410      2403      2402      2407
      2404      2403      2405      2404      2403      2406      2405      2403      2406
      2407      2410      2411      2407      2410      2412      2408      2407      2409
      2408      2407      2410      2409      2407      2410      2411      2410      2412
      2413      2415      2416      2413      2415      2417      2413      2415      2418
      2413      2419      2420      2413      2419      2421      2413      2419      2422
      2414      2413      2415      2414      2413      2419      2415      2413      2419
      2416      2415      2417      2416      2415      2418      2417      2415      2418
      2419      2422      2423      2419      2422      2424      2419      2422      2425
      2420      2419      2421      2420      2419      2422      2421      2419      2422
      2422      2425      2426      2422      2425      2427      2422      2425      2428
      2423      2422      2424      2423      2422      2425      2424      2422      2425
      2425      2428      2429      2425      2428      2430      2425      2428      2434
      2426      2425      2427      2426      2425      2428      2427      2425      2428
      2428      2430      2431      2428      2430      2432      2428      2430      2433
      2428      2434      2435      2428      2434      2436      2428      2434      2437
      2429      2428      2430      2429      2428      2434      2430      2428      2434
      2431      2430      2432      2431      2430      2433      2432      2430      2433
      2435      2434      2436      2435      2434      2437      2436      2434      2437
      2438      2440      2441      2438      2442      2443      2438      2442      2444
      2438      2442      2445      2438      2484      2481      2438      2484      2485
      2438      2484      2486      2439      2438      2440      2439      2438      2442
      2439      2438      2484      2440      2438      2442      2440      2438      2484
      2442      2438      2484      2442      2445      2446      2442      2445      2476
      2443      2442      2444      2443      2442      2445      2444      2442      2445
      2445      2446      2447      2445      2446      2448      2445      2476      2474
      2445      2476      2477      2445      2476      2481      2446      2445      2476
      2446      2448      2449      2446      2448      2450      2446      2448      2451
      2447      2446      2448      2448      2451      2452      2448      2451      2453
      2448      2451      2474      2449      2448      2450      2449      2448      2451
      2450      2448      2451      2451      2453      2454      2451      2453      2455
      2451      2453      2463      2451      2474      2471      2451      2474      2475
      2451      2474      2476      2452      2451      2453      2452      2451      2474
      2453      2451      2474      2453      2455      2456      2453      2455      2457
      2453      2455      2458      2453      2463      2461      2453      2463      2464
      2453      2463      2468      2454      2453      2455      2454      2453      2463
      2455      2453      2463      2455      2458      2459      2455      2458      2460
      2455      2458      2461      2456      2455      2457      2456      2455      2458
      2457      2455      2458      2458      2461      2462      2458      2461      2463
      2458      2461      2487      2459      2458      2460      2459      2458      2461
      2460      2458      2461      2461      2463      2464      2461      2463      2468
      2461      2487      2488      2461      2487      2489      2461      2487      2493
      2462      2461      2463      2462      2461      2487      2463      2461      2487
      2463      2464      2465      2463      2464      2466      2463      2464      2467
      2463      2468      2469      2463      2468      2470      2463      2468      2471
      2464      2463      2468      2465      2464      2466      2465      2464      2467
      2466      2464      2467      2468      2471      2472      2468      2471      2473
      2468      2471      2474      2469      2468      2470      2469      2468      2471
      2470      2468      2471      2471      2474      2475      2471      2474      2476
      2472      2471      2473      2472      2471      2474      2473      2471      2474
      2474      2476      2477      2474      2476      2481      2475      2474      2476
      2476      2477      2478      2476      2477      2479      2476      2477      2480
      2476      2481      2482      2476      2481      2483      2476      2481      2484
      2477      2476      2481      2478      2477      2479      2478      2477      2480
      2479      2477      2480      2481      2484      2485      2481      2484      2486
      2482      2481      2483      2482      2481      2484      2483      2481      2484
      2485      2484      2486      2487      2489      2490      2487      2489      2491
      2487      2489      2492      2487      2493      2494      2487      2493      2495
      2487      2493      2496      2488      2487      2489      2488      2487      2493
      2489      2487      2493      2490      2489      2491      2490      2489      2492
      2491      2489      2492      2493      2496      2497      2493      2496      2498
      2493      2496      2499      2494      2493      2495      2494      2493      2496
      2495      2493      2496      2496      2499      2500      2496      2499      2501
      2496      2499      2502      2497      2496      2498      2497      2496      2499
      2498      2496      2499      2499      2502      2503      2499      2502      2504
      2499      2502      2508      2500      2499      2501      2500      2499      2502
      2501      2499      2502      2502      2504      2505      2502      2504      2506
      2502      2504      2507      2502      2508      2509      2502      2508      2510
      2502      2508      2511      2503      2502      2504      2503      2502      2508
      2504      2502      2508      2505      2504      2506      2505      2504      2507
      2506      2504      2507      2509      2508      2510      2509      2508      2511
      2510      2508      2511      2512      2516      2517      2512      2516      2518
      2512      2516      2519      2513      2512      2514      2513      2512      2515
      2513      2512      2516      2514      2512      2515      2514      2512      2516
      2515      2512      2516      2516      2519      2520      2516      2519      2521
      2516      2519      2525      2517      2516      2518      2517      2516      2519
      2518      2516      2519      2519      2525      2522      2520      2519      2521
      2520      2519      2525      2521      2519      2525      2522      2526      2527
      2523      2522      2524      2523      2522      2525      2523      2522      2526
      2524      2522      2525      2524      2522      2526      2525      2522      2526
      2526      2527      2528      2526      2527      2529      2526      2527      2530
      2527      2530      2531      2527      2530      2532      2527      2530      2538
      2528      2527      2529      2528      2527      2530      2529      2527      2530
      2530      2532      2533      2530      2538      2539      2530      2538      2540
      2530      2538      2541      2531      2530      2532      2531      2530      2538
      2532      2530      2538      2532      2533      2534      2532      2533      2535
      2533      2535      2536      2533      2535      2537      2533      2535      2547
      2534      2533      2535      2535      2547      2548      2535      2547      2549
      2535      2547      2550      2536      2535      2537      2536      2535      2547
      2537      2535      2547      2538      2541      2542      2539      2538      2540
      2539      2538      2541      2540      2538      2541      2541      2542      2543
      2541      2542      2544      2542      2544      2545      2542      2544      2546
      2542      2544      2594      2543      2542      2544      2544      2594      2595
      2544      2594      2596      2544      2594      2597      2545      2544      2546
      2545      2544      2594      2546      2544      2594      2547      2550      2551
      2547      2550      2552      2547      2550      2553      2548      2547      2549
      2548      2547      2550      2549      2547      2550      2550      2553      2554
      2550      2553      2555      2551      2550      2552      2551      2550      2553
      2552      2550      2553      2553      2555      2556      2553      2555      2557
      2554      2553      2555      2555      2557      2558      2555      2557      2559
      2555      2557      2560      2556      2555      2557      2557      2560      2561
      2557      2560      2562      2558      2557      2559      2558      2557      2560
      2559      2557      2560      2560      2562      2563      2560      2562      2564
      2561      2560      2562      2562      2564      2565      2562      2564      2566
      2562      2564      2567      2563      2562      2564      2564      2567      2568
      2564      2567      2569      2565      2564      2566      2565      2564      2567
      2566      2564      2567      2567      2569      2570      2567      2569      2571
      2568      2567      2569      2569      2571      2572      2569      2571      2573
      2569      2571      2574      2570      2569      2571      2571      2574      2575
      2571      2574      2576      2572      2571      2573      2572      2571      2574
      2573      2571      2574      2574      2576      2577      2574      2576      2578
      2575      2574      2576      2576      2578      2579      2576      2578      2580
      2576      2578      2581      2577      2576      2578      2578      2581      2582
      2578      2581      2583      2578      2581      2584      2579      2578      2580
      2579      2578      2581      2580      2578      2581      2581      2584      2585
      2581      2584      2586      2581      2584      2587      2582      2581      2583
      2582      2581      2584      2583      2581      2584      2584      2587      2588
      2584      2587      2589      2584      2587      2590      2585      2584      2586
      2585      2584      2587      2586      2584      2587      2587      2590      2591
      2587      2590      2592      2587      2590      2593      2588      2587      2589
      2588      2587      2590      2589      2587      2590      2591      2590      2592
      2591      2590      2593      2592      2590      2593      2594      2597      2598
      2594      2597      2599      2594      2597      2600      2595      2594      2596
      2595      2594      2597      2596      2594      2597      2597      2600      2601
      2597      2600      2602      2597      2600      2603      2598      2597      2599
      2598      2597      2600      2599      2597      2600      2600      2603      2604
      2600      2603      2605      2600      2603      2606      2601      2600      2602
      2601      2600      2603      2602      2600      2603      2603      2606      2607
      2603      2606      2608      2603      2606      2609      2604      2603      2605
      2604      2603      2606      2605      2603      2606      2606      2609      2610
      2606      2609      2611      2606      2609      2612      2607      2606      2608
      2607      2606      2609      2608      2606      2609      2609      2612      2613
      2609      2612      2614      2609      2612      2615      2610      2609      2611
      2610      2609      2612      2611      2609      2612      2612      2615      2616
      2612      2615      2617      2612      2615      2618      2613      2612      2614
      2613      2612      2615      2614      2612      2615      2615      2618      2619
      2615      2618      2620      2615      2618      2621      2616      2615      2617
      2616      2615      2618      2617      2615      2618      2618      2621      2622
      2618      2621      2623      2618      2621      2624      2619      2618      2620
      2619      2618      2621      2620      2618      2621      2621      2624      2625
      2621      2624      2626      2621      2624      2627      2622      2621      2623
      2622      2621      2624      2623      2621      2624      2624      2627      2628
      2624      2627      2629      2624      2627      2630      2625      2624      2626
      2625      2624      2627      2626      2624      2627      2627      2630      2631
      2627      2630      2632      2627      2630      2633      2628      2627      2629
      2628      2627      2630      2629      2627      2630      2630      2633      2634
      2630      2633      2635      2630      2633      2636      2631      2630      2632
      2631      2630      2633      2632      2630      2633      2633      2636      2637
      2633      2636      2638      2633      2636      2639      2634      2633      2635
      2634      2633      2636      2635      2633      2636      2636      2639      2640
      2636      2639      2641      2636      2639      2642      2637      2636      2638
      2637      2636      2639      2638      2636      2639      2640      2639      2641
      2640      2639      2642      2641      2639      2642      2643      2644      2645
      2643      2644      2646      2643      2644      2647      2643      2648      2649
      2643      2648      2650      2643      2648      2651      2643      2652      2653
      2643      2652      2654      2643      2652      2655      2643      2656      2657
      2643      2656      2658      2643      2656      2659      2644      2643      2648
      2644      2643      2652      2644      2643      2656      2645      2644      2646
      2645      2644      2647      2646      2644      2647      2648      2643      2652
      2648      2643      2656      2649      2648      2650      2649      2648      2651
      2650      2648      2651      2652      2643      2656      2653      2652      2654
      2653      2652      2655      2654      2652      2655      2656      2659      2660
      2656      2659      2661      2656      2659      2666      2657      2656      2658
      2657      2656      2659      2658      2656      2659      2659      2666      2662
      2660      2659      2661      2660      2659      2666      2661      2659      2666
      2662      2665      2667      2663      2662      2664      2663      2662      2665
      2663      2662      2666      2664      2662      2665      2664      2662      2666
      2665      2662      2666      2665      2667      2668      2665      2667      2669
      2665      2667      2672      2667      2672      2670      2667      2672      2673
      2667      2672      2674      2668      2667      2669      2668      2667      2672
      2669      2667      2672      2670      2672      2673      2670      2672      2674
      2670      2722      2723      2670      2722      2724      2671      2670      2672
      2671      2670      2722      2672      2670      2722      2672      2674      2675
      2672      2674      2676      2672      2674      2678      2673      2672      2674
      2674      2676      2677      2674      2678      2679      2674      2678      2680
      2675      2674      2676      2675      2674      2678      2676      2674      2678
      2678      2680      2681      2678      2680      2682      2679      2678      2680
      2680      2682      2683      2680      2682      2684      2680      2682      2685
      2681      2680      2682      2682      2685      2686      2682      2685      2687
      2682      2685      2688      2683      2682      2684      2683      2682      2685
      2684      2682      2685      2685      2688      2689      2685      2688      2690
      2685      2688      2691      2686      2685      2687      2686      2685      2688
      2687      2685      2688      2688      2691      2692      2688      2691      2693
      2688      2691      2694      2689      2688      2690      2689      2688      2691
      2690      2688      2691      2691      2694      2695      2691      2694      2696
      2691      2694      2697      2692      2691      2693      2692      2691      2694
      2693      2691      2694      2694      2697      2698      2694      2697      2699
      2694      2697      2700      2695      2694      2696      2695      2694      2697
      2696      2694      2697      2697      2700      2701      2697      2700      2702
      2697      2700      2703      2698      2697      2699      2698      2697      2700
      2699      2697      2700      2700      2703      2704      2700      2703      2705
      2700      2703      2706      2701      2700      2702      2701      2700      2703
      2702      2700      2703      2703      2706      2707      2703      2706      2708
      2703      2706      2709      2704      2703      2705      2704      2703      2706
      2705      2703      2706      2706      2709      2710      2706      2709      2711
      2706      2709      2712      2707      2706      2708      2707      2706      2709
      2708      2706      2709      2709      2712      2713      2709      2712      2714
      2709      2712      2715      2710      2709      2711      2710      2709      2712
      2711      2709      2712      2712      2715      2716      2712      2715      2717
      2712      2715      2718      2713      2712      2714      2713      2712      2715
      2714      2712      2715      2715      2718      2719      2715      2718      2720
      2715      2718      2721      2716      2715      2717      2716      2715      2718
      2717      2715      2718      2719      2718      2720      2719      2718      2721
      2720      2718      2721      2722      2724      2725      2722      2724      2726
      2722      2724      2727      2723      2722      2724      2724      2727      2728
      2724      2727      2729      2724      2727      2730      2725      2724      2726
      2725      2724      2727      2726      2724      2727      2727      2730      2731
      2727      2730      2732      2727      2730      2733      2728      2727      2729
      2728      2727      2730      2729      2727      2730      2730      2733      2734
      2730      2733      2735      2730      2733      2736      2731      2730      2732
      2731      2730      2733      2732      2730      2733      2733      2736      2737
      2733      2736      2738      2733      2736      2739      2734      2733      2735
      2734      2733      2736      2735      2733      2736      2736      2739      2740
      2736      2739      2741      2736      2739      2742      2737      2736      2738
      2737      2736      2739      2738      2736      2739      2739      2742      2743
      2739      2742      2744      2739      2742      2745      2740      2739      2741
      2740      2739      2742      2741      2739      2742      2742      2745      2746
      2742      2745      2747      2743      2742      2744      2743      2742      2745
      2744      2742      2745      2745      2747      2748      2745      2747      2749
      2746      2745      2747      2747      2749      2750      2747      2749      2751
      2747      2749      2752      2748      2747      2749      2749      2752      2753
      2749      2752      2754      2749      2752      2755      2750      2749      2751
      2750      2749      2752      2751      2749      2752      2752      2755      2756
      2752      2755      2757      2752      2755      2758      2753      2752      2754
      2753      2752      2755      2754      2752      2755      2755      2758      2759
      2755      2758      2760      2755      2758      2761      2756      2755      2757
      2756      2755      2758      2757      2755      2758      2758      2761      2762
      2758      2761      2763      2758      2761      2764      2759      2758      2760
      2759      2758      2761      2760      2758      2761      2761      2764      2765
      2761      2764      2766      2761      2764      2767      2762      2761      2763
      2762      2761      2764      2763      2761      2764      2764      2767      2768
      2764      2767      2769      2764      2767      2770      2765      2764      2766
      2765      2764      2767      2766      2764      2767      2767      2770      2771
      2767      2770      2772      2767      2770      2773      2768      2767      2769
      2768      2767      2770      2769      2767      2770      2771      2770      2772
      2771      2770      2773      2772      2770      2773      2774      2776      2777
      2774      2778      2779      2774      2778      2780      2774      2778      2781
      2774      2820      2817      2774      2820      2821      2774      2820      2822
      2775      2774      2776      2775      2774      2778      2775      2774      2820
      2776      2774      2778      2776      2774      2820      2778      2774      2820
      2778      2781      2782      2778      2781      2812      2779      2778      2780
      2779      2778      2781      2780      2778      2781      2781      2782      2783
      2781      2782      2784      2781      2812      2810      2781      2812      2813
      2781      2812      2817      2782      2781      2812      2782      2784      2785
      2782      2784      2786      2782      2784      2787      2783      2782      2784
      2784      2787      2788      2784      2787      2789      2784      2787      2810
      2785      2784      2786      2785      2784      2787      2786      2784      2787
      2787      2789      2790      2787      2789      2791      2787      2789      2799
      2787      2810      2807      2787      2810      2811      2787      2810      2812
      2788      2787      2789      2788      2787      2810      2789      2787      2810
      2789      2791      2792      2789      2791      2793      2789      2791      2794
      2789      2799      2797      2789      2799      2800      2789      2799      2804
      2790      2789      2791      2790      2789      2799      2791      2789      2799
      2791      2794      2795      2791      2794      2796      2791      2794      2797
      2792      2791      2793      2792      2791      2794      2793      2791      2794
      2794      2797      2798      2794      2797      2799      2794      2797      2823
      2795      2794      2796      2795      2794      2797      2796      2794      2797
      2797      2799      2800      2797      2799      2804      2797      2823      2824
      2797      2823      2825      2797      2823      2829      2798      2797      2799
      2798      2797      2823      2799      2797      2823      2799      2800      2801
      2799      2800      2802      2799      2800      2803      2799      2804      2805
      2799      2804      2806      2799      2804      2807      2800      2799      2804
      2801      2800      2802      2801      2800      2803      2802      2800      2803
      2804      2807      2808      2804      2807      2809      2804      2807      2810
      2805      2804      2806      2805      2804      2807      2806      2804      2807
      2807      2810      2811      2807      2810      2812      2808      2807      2809
      2808      2807      2810      2809      2807      2810      2810      2812      2813
      2810      2812      2817      2811      2810      2812      2812      2813      2814
      2812      2813      2815      2812      2813      2816      2812      2817      2818
      2812      2817      2819      2812      2817      2820      2813      2812      2817
      2814      2813      2815      2814      2813      2816      2815      2813      2816
      2817      2820      2821      2817      2820      2822      2818      2817      2819
      2818      2817      2820      2819      2817      2820      2821      2820      2822
      2823      2825      2826      2823      2825      2827      2823      2825      2828
      2823      2829      2830      2823      2829      2831      2823      2829      2832
      2824      2823      2825      2824      2823      2829      2825      2823      2829
      2826      2825      2827      2826      2825      2828      2827      2825      2828
      2829      2832      2833      2829      2832      2834      2829      2832      2835
      2830      2829      2831      2830      2829      2832      2831      2829      2832
      2832      2835      2836      2832      2835      2837      2832      2835      2838
      2833      2832      2834      2833      2832      2835      2834      2832      2835
      2835      2838      2839      2835      2838      2840      2835      2838      2844
      2836      2835      2837      2836      2835      2838      2837      2835      2838
      2838      2840      2841      2838      2840      2842      2838      2840      2843
      2838      2844      2845      2838      2844      2846      2838      2844      2847
      2839      2838      2840      2839      2838      2844      2840      2838      2844
      2841      2840      2842      2841      2840      2843      2842      2840      2843
      2845      2844      2846      2845      2844      2847      2846      2844      2847
      2848      2849      2850      2848      2849      2851      2848      2849      2852
      2848      2853      2854      2848      2853      2855      2848      2853      2856
      2848      2857      2858      2848      2857      2859      2848      2857      2860
      2848      2861      2862      2848      2861      2863      2848      2861      2864
      2849      2848      2853      2849      2848      2857      2849      2848      2861
      2850      2849      2851      2850      2849      2852      2851      2849      2852
      2853      2848      2857      2853      2848      2861      2854      2853      2855
      2854      2853      2856      2855      2853      2856      2857      2848      2861
      2858      2857      2859      2858      2857      2860      2859      2857      2860
      2861      2864      2865      2861      2864      2866      2861      2864      2871
      2862      2861      2863      2862      2861      2864      2863      2861      2864
      2864      2871      2867      2865      2864      2866      2865      2864      2871
      2866      2864      2871      2867      2870      2872      2868      2867      2869
      2868      2867      2870      2868      2867      2871      2869      2867      2870
      2869      2867      2871      2870      2867      2871      2870      2872      2873
      2870      2872      2874      2870      2872      2877      2872      2877      2875
      2872      2877      2878      2872      2877      2879      2873      2872      2874
      2873      2872      2877      2874      2872      2877      2875      2877      2878
      2875      2877      2879      2875      2927      2928      2875      2927      2929
      2876      2875      2877      2876      2875      2927      2877      2875      2927
      2877      2879      2880      2877      2879      2881      2877      2879      2883
      2878      2877      2879      2879      2881      2882      2879      2883      2884
      2879      2883      2885      2880      2879      2881      2880      2879      2883
      2881      2879      2883      2883      2885      2886      2883      2885      2887
      2884      2883      2885      2885      2887      2888      2885      2887      2889
      2885      2887      2890      2886      2885      2887      2887      2890      2891
      2887      2890      2892      2887      2890      2893      2888      2887      2889
      2888      2887      2890      2889      2887      2890      2890      2893      2894
      2890      2893      2895      2890      2893      2896      2891      2890      2892
      2891      2890      2893      2892      2890      2893      2893      2896      2897
      2893      2896      2898      2893      2896      2899      2894      2893      2895
      2894      2893      2896      2895      2893      2896      2896      2899      2900
      2896      2899      2901      2896      2899      2902      2897      2896      2898
      2897      2896      2899      2898      2896      2899      2899      2902      2903
      2899      2902      2904      2899      2902      2905      2900      2899      2901
      2900      2899      2902      2901      2899      2902      2902      2905      2906
      2902      2905      2907      2902      2905      2908      2903      2902      2904
      2903      2902      2905      2904      2902      2905      2905      2908      2909
      2905      2908      2910      2905      2908      2911      2906      2905      2907
      2906      2905      2908      2907      2905      2908      2908      2911      2912
      2908      2911      2913      2908      2911      2914      2909      2908      2910
      2909      2908      2911      2910      2908      2911      2911      2914      2915
      2911      2914      2916      2911      2914      2917      2912      2911      2913
      2912      2911      2914      2913      2911      2914      2914      2917      2918
      2914      2917      2919      2914      2917      2920      2915      2914      2916
      2915      2914      2917      2916      2914      2917      2917      2920      2921
      2917      2920      2922      2917      2920      2923      2918      2917      2919
      2918      2917      2920      2919      2917      2920      2920      2923      2924
      2920      2923      2925      2920      2923      2926      2921      2920      2922
      2921      2920      2923      2922      2920      2923      2924      2923      2925
      2924      2923      2926      2925      2923      2926      2927      2929      2930
      2927      2929      2931      2927      2929      2932      2928      2927      2929
      2929      2932      2933      2929      2932      2934      2929      2932      2935
      2930      2929      2931      2930      2929      2932      2931      2929      2932
      2932      2935      2936      2932      2935      2937      2932      2935      2938
      2933      2932      2934      2933      2932      2935      2934      2932      2935
      2935      2938      2939      2935      2938      2940      2935      2938      2941
      2936      2935      2937      2936      2935      2938      2937      2935      2938
      2938      2941      2942      2938      2941      2943      2938      2941      2944
      2939      2938      2940      2939      2938      2941      2940      2938      2941
      2941      2944      2945      2941      2944      2946      2941      2944      2947
      2942      2941      2943      2942      2941      2944      2943      2941      2944
      2944      2947      2948      2944      2947      2949      2944      2947      2950
      2945      2944      2946      2945      2944      2947      2946      2944      2947
      2947      2950      2951      2947      2950      2952      2948      2947      2949
      2948      2947      2950      2949      2947      2950      2950      2952      2953
      2950      2952      2954      2951      2950      2952      2952      2954      2955
      2952      2954      2956      2952      2954      2957      2953      2952      2954
      2954      2957      2958      2954      2957      2959      2954      2957      2960
      2955      2954      2956      2955      2954      2957      2956      2954      2957
      2957      2960      2961      2957      2960      2962      2957      2960      2963
      2958      2957      2959      2958      2957      2960      2959      2957      2960
      2960      2963      2964      2960      2963      2965      2960      2963      2966
      2961      2960      2962      2961      2960      2963      2962      2960      2963
      2963      2966      2967      2963      2966      2968      2963      2966      2969
      2964      2963      2965      2964      2963      2966      2965      2963      2966
      2966      2969      2970      2966      2969      2971      2966      2969      2972
      2967      2966      2968      2967      2966      2969      2968      2966      2969
      2969      2972      2973      2969      2972      2974      2969      2972      2975
      2970      2969      2971      2970      2969      2972      2971      2969      2972
      2972      2975      2976      2972      2975      2977      2972      2975      2978
      2973      2972      2974      2973      2972      2975      2974      2972      2975
      2976      2975      2977      2976      2975      2978      2977      2975      2978
      2979      2980      2981      2979      2980      2982      2979      2980      2983
      2979      2984      2985      2979      2984      2986      2979      2984      2987
      2979      2988      2989      2979      2988      2990      2979      2988      2991
      2979      2992      2993      2979      2992      2994      2979      2992      2995
      2980      2979      2984      2980      2979      2988      2980      2979      2992
      2981      2980      2982      2981      2980      2983      2982      2980      2983
      2984      2979      2988      2984      2979      2992      2985      2984      2986
      2985      2984      2987      2986      2984      2987      2988      2979      2992
      2989      2988      2990      2989      2988      2991      2990      2988      2991
      2992      2995      2996      2992      2995      2997      2992      2995      3002
      2993      2992      2994      2993      2992      2995      2994      2992      2995
      2995      3002      2998      2996      2995      2997      2996      2995      3002
      2997      2995      3002      2998      3001      3003      2999      2998      3000
      2999      2998      3001      2999      2998      3002      3000      2998      3001
      3000      2998      3002      3001      2998      3002      3001      3003      3004
      3001      3003      3005      3001      3003      3008      3003      3008      3006
      3003      3008      3009      3003      3008      3010      3004      3003      3005
      3004      3003      3008      3005      3003      3008      3006      3008      3009
      3006      3008      3010      3006      3058      3059      3006      3058      3060
      3007      3006      3008      3007      3006      3058      3008      3006      3058
      3008      3010      3011      3008      3010      3012      3008      3010      3014
      3009      3008      3010      3010      3012      3013      3010      3014      3015
      3010      3014      3016      3011      3010      3012      3011      3010      3014
      3012      3010      3014      3014      3016      3017      3014      3016      3018
      3015      3014      3016      3016      3018      3019      3016      3018      3020
      3016      3018      3021      3017      3016      3018      3018      3021      3022
      3018      3021      3023      3018      3021      3024      3019      3018      3020
      3019      3018      3021      3020      3018      3021      3021      3024      3025
      3021      3024      3026      3021      3024      3027      3022      3021      3023
      3022      3021      3024      3023      3021      3024      3024      3027      3028
      3024      3027      3029      3024      3027      3030      3025      3024      3026
      3025      3024      3027      3026      3024      3027      3027      3030      3031
      3027      3030      3032      3027      3030      3033      3028      3027      3029
      3028      3027      3030      3029      3027      3030      3030      3033      3034
      3030      3033      3035      3030      3033      3036      3031      3030      3032
      3031      3030      3033      3032      3030      3033      3033      3036      3037
      3033      3036      3038      3033      3036      3039      3034      3033      3035
      3034      3033      3036      3035      3033      3036      3036      3039      3040
      3036      3039      3041      3036      3039      3042      3037      3036      3038
      3037      3036      3039      3038      3036      3039      3039      3042      3043
      3039      3042      3044      3039      3042      3045      3040      3039      3041
      3040      3039      3042      3041      3039      3042      3042      3045      3046
      3042      3045      3047      3042      3045      3048      3043      3042      3044
      3043      3042      3045      3044      3042      3045      3045      3048      3049
      3045      3048      3050      3045      3048      3051      3046      3045      3047
      3046      3045      3048      3047      3045      3048      3048      3051      3052
      3048      3051      3053      3048      3051      3054      3049      3048      3050
      3049      3048      3051      3050      3048      3051      3051      3054      3055
      3051      3054      3056      3051      3054      3057      3052      3051      3053
      3052      3051      3054      3053      3051      3054      3055      3054      3056
      3055      3054      3057      3056      3054      3057      3058      3060      3061
      3058      3060      3062      3058      3060      3063      3059      3058      3060
      3060      3063      3064      3060      3063      3065      3060      3063      3066
      3061      3060      3062      3061      3060      3063      3062      3060      3063
      3063      3066      3067      3063      3066      3068      3063      3066      3069
      3064      3063      3065      3064      3063      3066      3065      3063      3066
      3066      3069      3070      3066      3069      3071      3066      3069      3072
      3067      3066      3068      3067      3066      3069      3068      3066      3069
      3069      3072      3073      3069      3072      3074      3069      3072      3075
      3070      3069      3071      3070      3069      3072      3071      3069      3072
      3072      3075      3076      3072      3075      3077      3072      3075      3078
      3073      3072      3074      3073      3072      3075      3074      3072      3075
      3075      3078      3079      3075      3078      3080      3075      3078      3081
      3076      3075      3077      3076      3075      3078      3077      3075      3078
      3078      3081      3082      3078      3081      3083      3079      3078      3080
      3079      3078      3081      3080      3078      3081      3081      3083      3084
      3081      3083      3085      3082      3081      3083      3083      3085      3086
      3083      3085      3087      3083      3085      3088      3084      3083      3085
      3085      3088      3089      3085      3088      3090      3085      3088      3091
      3086      3085      3087      3086      3085      3088      3087      3085      3088
      3088      3091      3092      3088      3091      3093      3088      3091      3094
      3089      3088      3090      3089      3088      3091      3090      3088      3091
      3091      3094      3095      3091      3094      3096      3091      3094      3097
      3092      3091      3093      3092      3091      3094      3093      3091      3094
      3094      3097      3098      3094      3097      3099      3094      3097      3100
      3095      3094      3096      3095      3094      3097      3096      3094      3097
      3097      3100      3101      3097      3100      3102      3097      3100      3103
      3098      3097      3099      3098      3097      3100      3099      3097      3100
      3100      3103      3104      3100      3103      3105      3100      3103      3106
      3101      3100      3102      3101      3100      3103      3102      3100      3103
      3103      3106      3107      3103      3106      3108      3103      3106      3109
      3104      3103      3105      3104      3103      3106      3105      3103      3106
      3107      3106      3108      3107      3106      3109      3108      3106      3109
      3110      3114      3115      3110      3114      3116      3110      3114      3117
      3111      3110      3112      3111      3110      3113      3111      3110      3114
      3112      3110      3113      3112      3110      3114      3113      3110      3114
      3114      3117      3118      3114      3117      3119      3114      3117      3123
      3115      3114      3116      3115      3114      3117      3116      3114      3117
      3117      3123      3120      3118      3117      3119      3118      3117      3123
      3119      3117      3123      3120      3124      3125      3121      3120      3122
      3121      3120      3123      3121      3120      3124      3122      3120      3123
      3122      3120      3124      3123      3120      3124      3124      3125      3126
      3124      3125      3127      3124      3125      3128      3125      3128      3129
      3125      3128      3130      3125      3128      3136      3126      3125      3127
      3126      3125      3128      3127      3125      3128      3128      3130      3131
      3128      3136      3137      3128      3136      3138      3128      3136      3139
      3129      3128      3130      3129      3128      3136      3130      3128      3136
      3130      3131      3132      3130      3131      3133      3131      3133      3134
      3131      3133      3135      3131      3133      3145      3132      3131      3133
      3133      3145      3146      3133      3145      3147      3133      3145      3148
      3134      3133      3135      3134      3133      3145      3135      3133      3145
      3136      3139      3140      3137      3136      3138      3137      3136      3139
      3138      3136      3139      3139      3140      3141      3139      3140      3142
      3140      3142      3143      3140      3142      3144      3140      3142      3192
      3141      3140      3142      3142      3192      3193      3142      3192      3194
      3142      3192      3195      3143      3142      3144      3143      3142      3192
      3144      3142      3192      3145      3148      3149      3145      3148      3150
      3145      3148      3151      3146      3145      3147      3146      3145      3148
      3147      3145      3148      3148      3151      3152      3148      3151      3153
      3148      3151      3154      3149      3148      3150      3149      3148      3151
      3150      3148      3151      3151      3154      3155      3151      3154      3156
      3151      3154      3157      3152      3151      3153      3152      3151      3154
      3153      3151      3154      3154      3157      3158      3154      3157      3159
      3154      3157      3160      3155      3154      3156      3155      3154      3157
      3156      3154      3157      3157      3160      3161      3157      3160      3162
      3157      3160      3163      3158      3157      3159      3158      3157      3160
      3159      3157      3160      3160      3163      3164      3160      3163      3165
      3161      3160      3162      3161      3160      3163      3162      3160      3163
      3163      3165      3166      3163      3165      3167      3164      3163      3165
      3165      3167      3168      3165      3167      3169      3165      3167      3170
      3166      3165      3167      3167      3170      3171      3167      3170      3172
      3167      3170      3173      3168      3167      3169      3168      3167      3170
      3169      3167      3170      3170      3173      3174      3170      3173      3175
      3170      3173      3176      3171      3170      3172      3171      3170      3173
      3172      3170      3173      3173      3176      3177      3173      3176      3178
      3173      3176      3179      3174      3173      3175      3174      3173      3176
      3175      3173      3176      3176      3179      3180      3176      3179      3181
      3176      3179      3182      3177      3176      3178      3177      3176      3179
      3178      3176      3179      3179      3182      3183      3179      3182      3184
      3179      3182      3185      3180      3179      3181      3180      3179      3182
      3181      3179      3182      3182      3185      3186      3182      3185      3187
      3182      3185      3188      3183      3182      3184      3183      3182      3185
      3184      3182      3185      3185      3188      3189      3185      3188      3190
      3185      3188      3191      3186      3185      3187      3186      3185      3188
      3187      3185      3188      3189      3188      3190      3189      3188      3191
      3190      3188      3191      3192      3195      3196      3192      3195      3197
      3192      3195      3198      3193      3192      3194      3193      3192      3195
      3194      3192      3195      3195      3198      3199      3195      3198      3200
      3195      3198      3201      3196      3195      3197      3196      3195      3198
      3197      3195      3198      3198      3201      3202      3198      3201      3203
      3198      3201      3204      3199      3198      3200      3199      3198      3201
      3200      3198      3201      3201      3204      3205      3201      3204      3206
      3201      3204      3207      3202      3201      3203      3202      3201      3204
      3203      3201      3204      3204      3207      3208      3204      3207      3209
      3204      3207      3210      3205      3204      3206      3205      3204      3207
      3206      3204      3207      3207      3210      3211      3207      3210      3212
      3207      3210      3213      3208      3207      3209      3208      3207      3210
      3209      3207      3210      3210      3213      3214      3210      3213      3215
      3210      3213      3216      3211      3210      3212      3211      3210      3213
      3212      3210      3213      3213      3216      3217      3213      3216      3218
      3213      3216      3219      3214      3213      3215      3214      3213      3216
      3215      3213      3216      3216      3219      3220      3216      3219      3221
      3216      3219      3222      3217      3216      3218      3217      3216      3219
      3218      3216      3219      3219      3222      3223      3219      3222      3224
      3219      3222      3225      3220      3219      3221      3220      3219      3222
      3221      3219      3222      3222      3225      3226      3222      3225      3227
      3222      3225      3228      3223      3222      3224      3223      3222      3225
      3224      3222      3225      3225      3228      3229      3225      3228      3230
      3225      3228      3231      3226      3225      3227      3226      3225      3228
      3227      3225      3228      3228      3231      3232      3228      3231      3233
      3228      3231      3234      3229      3228      3230      3229      3228      3231
      3230      3228      3231      3231      3234      3235      3231      3234      3236
      3231      3234      3237      3232      3231      3233      3232      3231      3234
      3233      3231      3234      3234      3237      3238      3234      3237      3239
      3234      3237      3240      3235      3234      3236      3235      3234      3237
      3236      3234      3237      3238      3237      3239      3238      3237      3240
      3239      3237      3240      3241      3242      3243      3241      3242      3244
      3241      3242      3245      3241      3246      3247      3241      3246      3248
      3241      3246      3249      3241      3250      3251      3241      3250      3252
      3241      3250      3253      3241      3254      3255      3241      3254      3256
      3241      3254      3257      3242      3241      3246      3242      3241      3250
      3242      3241      3254      3243      3242      3244      3243      3242      3245
      3244      3242      3245      3246      3241      3250      3246      3241      3254
      3247      3246      3248      3247      3246      3249      3248      3246      3249
      3250      3241      3254      3251      3250      3252      3251      3250      3253
      3252      3250      3253      3254      3257      3258      3254      3257      3259
      3254      3257      3264      3255      3254      3256      3255      3254      3257
      3256      3254      3257      3257      3264      3260      3258      3257      3259
      3258      3257      3264      3259      3257      3264      3260      3263      3265
      3261      3260      3262      3261      3260      3263      3261      3260      3264
      3262      3260      3263      3262      3260      3264      3263      3260      3264
      3263      3265      3266      3263      3265      3267      3263      3265      3270
      3265      3270      3268      3265      3270      3271      3265      3270      3272
      3266      3265      3267      3266      3265      3270      3267      3265      3270
      3268      3270      3271      3268      3270      3272      3268      3320      3321
      3268      3320      3322      3269      3268      3270      3269      3268      3320
      3270      3268      3320      3270      3272      3273      3270      3272      3274
      3270      3272      3276      3271      3270      3272      3272      3274      3275
      3272      3276      3277      3272      3276      3278      3273      3272      3274
      3273      3272      3276      3274      3272      3276      3276      3278      3279
      3276      3278      3280      3277      3276      3278      3278      3280      3281
      3278      3280      3282      3278      3280      3283      3279      3278      3280
      3280      3283      3284      3280      3283      3285      3280      3283      3286
      3281      3280      3282      3281      3280      3283      3282      3280      3283
      3283      3286      3287      3283      3286      3288      3283      3286      3289
      3284      3283      3285      3284      3283      3286      3285      3283      3286
      3286      3289      3290      3286      3289      3291      3286      3289      3292
      3287      3286      3288      3287      3286      3289      3288      3286      3289
      3289      3292      3293      3289      3292      3294      3289      3292      3295
      3290      3289      3291      3290      3289      3292      3291      3289      3292
      3292      3295      3296      3292      3295      3297      3292      3295      3298
      3293      3292      3294      3293      3292      3295      3294      3292      3295
      3295      3298      3299      3295      3298      3300      3295      3298      3301
      3296      3295      3297      3296      3295      3298      3297      3295      3298
      3298      3301      3302      3298      3301      3303      3298      3301      3304
      3299      3298      3300      3299      3298      3301      3300      3298      3301
      3301      3304      3305      3301      3304      3306      3301      3304      3307
      3302      3301      3303      3302      3301      3304      3303      3301      3304
      3304      3307      3308      3304      3307      3309      3304      3307      3310
      3305      3304      3306      3305      3304      3307      3306      3304      3307
      3307      3310      3311      3307      3310      3312      3307      3310      3313
      3308      3307      3309      3308      3307      3310      3309      3307      3310
      3310      3313      3314      3310      3313      3315      3310      3313      3316
      3311      3310      3312      3311      3310      3313      3312      3310      3313
      3313      3316      3317      3313      3316      3318      3313      3316      3319
      3314      3313      3315      3314      3313      3316      3315      3313      3316
      3317      3316      3318      3317      3316      3319      3318      3316      3319
      3320      3322      3323      3320      3322      3324      3320      3322      3325
      3321      3320      3322      3322      3325      3326      3322      3325      3327
      3322      3325      3328      3323      3322      3324      3323      3322      3325
      3324      3322      3325      3325      3328      3329      3325      3328      3330
      3325      3328      3331      3326      3325      3327      3326      3325      3328
      3327      3325      3328      3328      3331      3332      3328      3331      3333
      3328      3331      3334      3329      3328      3330      3329      3328      3331
      3330      3328      3331      3331      3334      3335      3331      3334      3336
      3331      3334      3337      3332      3331      3333      3332      3331      3334
      3333      3331      3334      3334      3337      3338      3334      3337      3339
      3334      3337      3340      3335      3334      3336      3335      3334      3337
      3336      3334      3337      3337      3340      3341      3337      3340      3342
      3337      3340      3343      3338      3337      3339      3338      3337      3340
      3339      3337      3340      3340      3343      3344      3340      3343      3345
      3341      3340      3342      3341      3340      3343      3342      3340      3343
      3343      3345      3346      3343      3345      3347      3344      3343      3345
      3345      3347      3348      3345      3347      3349      3345      3347      3350
      3346      3345      3347      3347      3350      3351      3347      3350      3352
      3347      3350      3353      3348      3347      3349      3348      3347      3350
      3349      3347      3350      3350      3353      3354      3350      3353      3355
      3350      3353      3356      3351      3350      3352      3351      3350      3353
      3352      3350      3353      3353      3356      3357      3353      3356      3358
      3353      3356      3359      3354      3353      3355      3354      3353      3356
      3355      3353      3356      3356      3359      3360      3356      3359      3361
      3356      3359      3362      3357      3356      3358      3357      3356      3359
      3358      3356      3359      3359      3362      3363      3359      3362      3364
      3359      3362      3365      3360      3359      3361      3360      3359      3362
      3361      3359      3362      3362      3365      3366      3362      3365      3367
      3362      3365      3368      3363      3362      3364      3363      3362      3365
      3364      3362      3365      3365      3368      3369      3365      3368      3370
      3365      3368      3371      3366      3365      3367      3366      3365      3368
      3367      3365      3368      3369      3368      3370      3369      3368      3371
      3370      3368      3371      3372      3373      3374      3372      3373      3375
      3372      3373      3376      3372      3377      3378      3372      3377      3379
      3372      3377      3380      3372      3381      3382      3372      3381      3383
      3372      3381      3384      3372      3385      3386      3372      3385      3387
      3372      3385      3388      3373      3372      3377      3373      3372      3381
      3373      3372      3385      3374      3373      3375      3374      3373      3376
      3375      3373      3376      3377      3372      3381      3377      3372      3385
      3378      3377      3379      3378      3377      3380      3379      3377      3380
      3381      3372      3385      3382      3381      3383      3382      3381      3384
      3383      3381      3384      3385      3388      3389      3385      3388      3390
      3385      3388      3395      3386      3385      3387      3386      3385      3388
      3387      3385      3388      3388      3395      3391      3389      3388      3390
      3389      3388      3395      3390      3388      3395      3391      3394      3396
      3392      3391      3393      3392      3391      3394      3392      3391      3395
      3393      3391      3394      3393      3391      3395      3394      3391      3395
      3394      3396      3397      3394      3396      3398      3394      3396      3401
      3396      3401      3399      3396      3401      3402      3396      3401      3403
      3397      3396      3398      3397      3396      3401      3398      3396      3401
      3399      3401      3402      3399      3401      3403      3399      3451      3452
      3399      3451      3453      3400      3399      3401      3400      3399      3451
      3401      3399      3451      3401      3403      3404      3401      3403      3405
      3401      3403      3407      3402      3401      3403      3403      3405      3406
      3403      3407      3408      3403      3407      3409      3404      3403      3405
      3404      3403      3407      3405      3403      3407      3407      3409      3410
      3407      3409      3411      3408      3407      3409      3409      3411      3412
      3409      3411      3413      3409      3411      3414      3410      3409      3411
      3411      3414      3415      3411      3414      3416      3411      3414      3417
      3412      3411      3413      3412      3411      3414      3413      3411      3414
      3414      3417      3418      3414      3417      3419      3414      3417      3420
      3415      3414      3416      3415      3414      3417      3416      3414      3417
      3417      3420      3421      3417      3420      3422      3417      3420      3423
      3418      3417      3419      3418      3417      3420      3419      3417      3420
      3420      3423      3424      3420      3423      3425      3420      3423      3426
      3421      3420      3422      3421      3420      3423      3422      3420      3423
      3423      3426      3427      3423      3426      3428      3423      3426      3429
      3424      3423      3425      3424      3423      3426      3425      3423      3426
      3426      3429      3430      3426      3429      3431      3426      3429      3432
      3427      3426      3428      3427      3426      3429      3428      3426      3429
      3429      3432      3433      3429      3432      3434      3429      3432      3435
      3430      3429      3431      3430      3429      3432      3431      3429      3432
      3432      3435      3436      3432      3435      3437      3432      3435      3438
      3433      3432      3434      3433      3432      3435      3434      3432      3435
      3435      3438      3439      3435      3438      3440      3435      3438      3441
      3436      3435      3437      3436      3435      3438      3437      3435      3438
      3438      3441      3442      3438      3441      3443      3438      3441      3444
      3439      3438      3440      3439      3438      3441      3440      3438      3441
      3441      3444      3445      3441      3444      3446      3441      3444      3447
      3442      3441      3443      3442      3441      3444      3443      3441      3444
      3444      3447      3448      3444      3447      3449      3444      3447      3450
      3445      3444      3446      3445      3444      3447      3446      3444      3447
      3448      3447      3449      3448      3447      3450      3449      3447      3450
      3451      3453      3454      3451      3453      3455      3451      3453      3456
      3452      3451      3453      3453      3456      3457      3453      3456      3458
      3453      3456      3459      3454      3453      3455      3454      3453      3456
      3455      3453      3456      3456      3459      3460      3456      3459      3461
      3456      3459      3462      3457      3456      3458      3457      3456      3459
      3458      3456      3459      3459      3462      3463      3459      3462      3464
      3459      3462      3465      3460      3459      3461      3460      3459      3462
      3461      3459      3462      3462      3465      3466      3462      3465      3467
      3462      3465      3468      3463      3462      3464      3463      3462      3465
      3464      3462      3465      3465      3468      3469      3465      3468      3470
      3465      3468      3471      3466      3465      3467      3466      3465      3468
      3467      3465      3468      3468      3471      3472      3468      3471      3473
      3468      3471      3474      3469      3468      3470      3469      3468      3471
      3470      3468      3471      3471      3474      3475      3471      3474      3476
      3472      3471      3473      3472      3471      3474      3473      3471      3474
      3474      3476      3477      3474      3476      3478      3475      3474      3476
      3476      3478      3479      3476      3478      3480      3476      3478      3481
      3477      3476      3478      3478      3481      3482      3478      3481      3483
      3478      3481      3484      3479      3478      3480      3479      3478      3481
      3480      3478      3481      3481      3484      3485      3481      3484      3486
      3481      3484      3487      3482      3481      3483      3482      3481      3484
      3483      3481      3484      3484      3487      3488      3484      3487      3489
      3484      3487      3490      3485      3484      3486      3485      3484      3487
      3486      3484      3487      3487      3490      3491      3487      3490      3492
      3487      3490      3493      3488      3487      3489      3488      3487      3490
      3489      3487      3490      3490      3493      3494      3490      3493      3495
      3490      3493      3496      3491      3490      3492      3491      3490      3493
      3492      3490      3493      3493      3496      3497      3493      3496      3498
      3493      3496      3499      3494      3493      3495      3494      3493      3496
      3495      3493      3496      3496      3499      3500      3496      3499      3501
      3496      3499      3502      3497      3496      3498      3497      3496      3499
      3498      3496      3499      3500      3499      3501      3500      3499      3502
      3501      3499      3502      3503      3507      3508      3503      3507      3509
      3503      3507      3510      3504      3503      3505      3504      3503      3506
      3504      3503      3507      3505      3503      3506      3505      3503      3507
      3506      3503      3507      3507      3510      3511      3507      3510      3512
      3507      3510      3516      3508      3507      3509      3508      3507      3510
      3509      3507      3510      3510      3516      3513      3511      3510      3512
      3511      3510      3516      3512      3510      3516      3513      3517      3518
      3514      3513      3515      3514      3513      3516      3514      3513      3517
      3515      3513      3516      3515      3513      3517      3516      3513      3517
      3517      3518      3519      3517      3518      3520      3517      3518      3521
      3518      3521      3522      3518      3521      3523      3518      3521      3529
      3519      3518      3520      3519      3518      3521      3520      3518      3521
      3521      3523      3524      3521      3529      3530      3521      3529      3531
      3521      3529      3532      3522      3521      3523      3522      3521      3529
      3523      3521      3529      3523      3524      3525      3523      3524      3526
      3524      3526      3527      3524      3526      3528      3524      3526      3538
      3525      3524      3526      3526      3538      3539      3526      3538      3540
      3526      3538      3541      3527      3526      3528      3527      3526      3538
      3528      3526      3538      3529      3532      3533      3530      3529      3531
      3530      3529      3532      3531      3529      3532      3532      3533      3534
      3532      3533      3535      3533      3535      3536      3533      3535      3537
      3533      3535      3585      3534      3533      3535      3535      3585      3586
      3535      3585      3587      3535      3585      3588      3536      3535      3537
      3536      3535      3585      3537      3535      3585      3538      3541      3542
      3538      3541      3543      3538      3541      3544      3539      3538      3540
      3539      3538      3541      3540      3538      3541      3541      3544      3545
      3541      3544      3546      3541      3544      3547      3542      3541      3543
      3542      3541      3544      3543      3541      3544      3544      3547      3548
      3544      3547      3549      3544      3547      3550      3545      3544      3546
      3545      3544      3547      3546      3544      3547      3547      3550      3551
      3547      3550      3552      3547      3550      3553      3548      3547      3549
      3548      3547      3550      3549      3547      3550      3550      3553      3554
      3550      3553      3555      3550      3553      3556      3551      3550      3552
      3551      3550      3553      3552      3550      3553      3553      3556      3557
      3553      3556      3558      3554      3553      3555      3554      3553      3556
      3555      3553      3556      3556      3558      3559      3556      3558      3560
      3557      3556      3558      3558      3560      3561      3558      3560      3562
      3558      3560      3563      3559      3558      3560      3560      3563      3564
      3560      3563      3565      3560      3563      3566      3561      3560      3562
      3561      3560      3563      3562      3560      3563      3563      3566      3567
      3563      3566      3568      3563      3566      3569      3564      3563      3565
      3564      3563      3566      3565      3563      3566      3566      3569      3570
      3566      3569      3571      3566      3569      3572      3567      3566      3568
      3567      3566      3569      3568      3566      3569      3569      3572      3573
      3569      3572      3574      3569      3572      3575      3570      3569      3571
      3570      3569      3572      3571      3569      3572      3572      3575      3576
      3572      3575      3577      3572      3575      3578      3573      3572      3574
      3573      3572      3575      3574      3572      3575      3575      3578      3579
      3575      3578      3580      3575      3578      3581      3576      3575      3577
      3576      3575      3578      3577      3575      3578      3578      3581      3582
      3578      3581      3583      3578      3581      3584      3579      3578      3580
      3579      3578      3581      3580      3578      3581      3582      3581      3583
      3582      3581      3584      3583      3581      3584      3585      3588      3589
      3585      3588      3590      3585      3588      3591      3586      3585      3587
      3586      3585      3588      3587      3585      3588      3588      3591      3592
      3588      3591      3593      3588      3591      3594      3589      3588      3590
      3589      3588      3591      3590      3588      3591      3591      3594      3595
      3591      3594      3596      3591      3594      3597      3592      3591      3593
      3592      3591      3594      3593      3591      3594      3594      3597      3598
      3594      3597      3599      3594      3597      3600      3595      3594      3596
      3595      3594      3597      3596      3594      3597      3597      3600      3601
      3597      3600      3602      3597      3600      3603      3598      3597      3599
      3598      3597      3600      3599      3597      3600      3600      3603      3604
      3600      3603      3605      3600      3603      3606      3601      3600      3602
      3601      3600      3603      3602      3600      3603      3603      3606      3607
      3603      3606      3608      3603      3606      3609      3604      3603      3605
      3604      3603      3606      3605      3603      3606      3606      3609      3610
      3606      3609      3611      3606      3609      3612      3607      3606      3608
      3607      3606      3609      3608      3606      3609      3609      3612      3613
      3609      3612      3614      3609      3612      3615      3610      3609      3611
      3610      3609      3612      3611      3609      3612      3612      3615      3616
      3612      3615      3617      3612      3615      3618      3613      3612      3614
      3613      3612      3615      3614      3612      3615      3615      3618      3619
      3615      3618      3620      3615      3618      3621      3616      3615      3617
      3616      3615      3618      3617      3615      3618      3618      3621      3622
      3618      3621      3623      3618      3621      3624      3619      3618      3620
      3619      3618      3621      3620      3618      3621      3621      3624      3625
      3621      3624      3626      3621      3624      3627      3622      3621      3623
      3622      3621      3624      3623      3621      3624      3624      3627      3628
      3624      3627      3629      3624      3627      3630      3625      3624      3626
      3625      3624      3627      3626      3624      3627      3627      3630      3631
      3627      3630      3632      3627      3630      3633      3628      3627      3629
      3628      3627      3630      3629      3627      3630      3631      3630      3632
      3631      3630      3633      3632      3630      3633      3634      3635      3636
      3634      3635      3637      3634      3635      3638      3634      3639      3640
      3634      3639      3641      3634      3639      3642      3634      3643      3644
      3634      3643      3645      3634      3643      3646      3634      3647      3648
      3634      3647      3649      3634      3647      3650      3635      3634      3639
      3635      3634      3643      3635      3634      3647      3636      3635      3637
      3636      3635      3638      3637      3635      3638      3639      3634      3643
      3639      3634      3647      3640      3639      3641      3640      3639      3642
      3641      3639      3642      3643      3634      3647      3644      3643      3645
      3644      3643      3646      3645      3643      3646      3647      3650      3651
      3647      3650      3652      3647      3650      3657      3648      3647      3649
      3648      3647      3650      3649      3647      3650      3650      3657      3653
      3651      3650      3652      3651      3650      3657      3652      3650      3657
      3653      3656      3658      3654      3653      3655      3654      3653      3656
      3654      3653      3657      3655      3653      3656      3655      3653      3657
      3656      3653      3657      3656      3658      3659      3656      3658      3660
      3656      3658      3663      3658      3663      3661      3658      3663      3664
      3658      3663      3665      3659      3658      3660      3659      3658      3663
      3660      3658      3663      3661      3663      3664      3661      3663      3665
      3661      3713      3714      3661      3713      3715      3662      3661      3663
      3662      3661      3713      3663      3661      3713      3663      3665      3666
      3663      3665      3667      3663      3665      3669      3664      3663      3665
      3665      3667      3668      3665      3669      3670      3665      3669      3671
      3666      3665      3667      3666      3665      3669      3667      3665      3669
      3669      3671      3672      3669      3671      3673      3670      3669      3671
      3671      3673      3674      3671      3673      3675      3671      3673      3676
      3672      3671      3673      3673      3676      3677      3673      3676      3678
      3673      3676      3679      3674      3673      3675      3674      3673      3676
      3675      3673      3676      3676      3679      3680      3676      3679      3681
      3676      3679      3682      3677      3676      3678      3677      3676      3679
      3678      3676      3679      3679      3682      3683      3679      3682      3684
      3679      3682      3685      3680      3679      3681      3680      3679      3682
      3681      3679      3682      3682      3685      3686      3682      3685      3687
      3682      3685      3688      3683      3682      3684      3683      3682      3685
      3684      3682      3685      3685      3688      3689      3685      3688      3690
      3685      3688      3691      3686      3685      3687      3686      3685      3688
      3687      3685      3688      3688      3691      3692      3688      3691      3693
      3688      3691      3694      3689      3688      3690      3689      3688      3691
      3690      3688      3691      3691      3694      3695      3691      3694      3696
      3691      3694      3697      3692      3691      3693      3692      3691      3694
      3693      3691      3694      3694      3697      3698      3694      3697      3699
      3694      3697      3700      3695      3694      3696      3695      3694      3697
      3696      3694      3697      3697      3700      3701      3697      3700      3702
      3697      3700      3703      3698      3697      3699      3698      3697      3700
      3699      3697      3700      3700      3703      3704      3700      3703      3705
      3700      3703      3706      3701      3700      3702      3701      3700      3703
      3702      3700      3703      3703      3706      3707      3703      3706      3708
      3703      3706      3709      3704      3703      3705      3704      3703      3706
      3705      3703      3706      3706      3709      3710      3706      3709      3711
      3706      3709      3712      3707      3706      3708      3707      3706      3709
      3708      3706      3709      3710      3709      3711      3710      3709      3712
      3711      3709      3712      3713      3715      3716      3713      3715      3717
      3713      3715      3718      3714      3713      3715      3715      3718      3719
      3715      3718      3720      3715      3718      3721      3716      3715      3717
      3716      3715      3718      3717      3715      3718      3718      3721      3722
      3718      3721      3723      3718      3721      3724      3719      3718      3720
      3719      3718      3721      3720      3718      3721      3721      3724      3725
      3721      3724      3726      3721      3724      3727      3722      3721      3723
      3722      3721      3724      3723      3721      3724      3724      3727      3728
      3724      3727      3729      3724      3727      3730      3725      3724      3726
      3725      3724      3727      3726      3724      3727      3727      3730      3731
      3727      3730      3732      3727      3730      3733      3728      3727      3729
      3728      3727      3730      3729      3727      3730      3730      3733      3734
      3730      3733      3735      3730      3733      3736      3731      3730      3732
      3731      3730      3733      3732      3730      3733      3733      3736      3737
      3733      3736      3738      3734      3733      3735      3734      3733      3736
      3735      3733      3736      3736      3738      3739      3736      3738      3740
      3737      3736      3738      3738      3740      3741      3738      3740      3742
      3738      3740      3743      3739      3738      3740      3740      3743      3744
      3740      3743      3745      3740      3743      3746      3741      3740      3742
      3741      3740      3743      3742      3740      3743      3743      3746      3747
      3743      3746      3748      3743      3746      3749      3744      3743      3745
      3744      3743      3746      3745      3743      3746      3746      3749      3750
      3746      3749      3751      3746      3749      3752      3747      3746      3748
      3747      3746      3749      3748      3746      3749      3749      3752      3753
      3749      3752      3754      3749      3752      3755      3750      3749      3751
      3750      3749      3752      3751      3749      3752      3752      3755      3756
      3752      3755      3757      3752      3755      3758      3753      3752      3754
      3753      3752      3755      3754      3752      3755      3755      3758      3759
      3755      3758      3760      3755      3758      3761      3756      3755      3757
      3756      3755      3758      3757      3755      3758      3758      3761      3762
      3758      3761      3763      3758      3761      3764      3759      3758      3760
      3759      3758      3761      3760      3758      3761      3762      3761      3763
      3762      3761      3764      3763      3761      3764      3765      3766      3767
      3765      3766      3768      3765      3766      3769      3765      3770      3771
      3765      3770      3772      3765      3770      3773      3765      3774      3775
      3765      3774      3776      3765      3774      3777      3765      3778      3779
      3765      3778      3780      3765      3778      3781      3766      3765      3770
      3766      3765      3774      3766      3765      3778      3767      3766      3768
      3767      3766      3769      3768      3766      3769      3770      3765      3774
      3770      3765      3778      3771      3770      3772      3771      3770      3773
      3772      3770      3773      3774      3765      3778      3775      3774      3776
      3775      3774      3777      3776      3774      3777      3778      3781      3782
      3778      3781      3783      3778      3781      3788      3779      3778      3780
      3779      3778      3781      3780      3778      3781      3781      3788      3784
      3782      3781      3783      3782      3781      3788      3783      3781      3788
      3784      3787      3789      3785      3784      3786      3785      3784      3787
      3785      3784      3788      3786      3784      3787      3786      3784      3788
      3787      3784      3788      3787      3789      3790      3787      3789      3791
      3787      3789      3794      3789      3794      3792      3789      3794      3795
      3789      3794      3796      3790      3789      3791      3790      3789      3794
      3791      3789      3794      3792      3794      3795      3792      3794      3796
      3792      3844      3845      3792      3844      3846      3793      3792      3794
      3793      3792      3844      3794      3792      3844      3794      3796      3797
      3794      3796      3798      3794      3796      3800      3795      3794      3796
      3796      3798      3799      3796      3800      3801      3796      3800      3802
      3797      3796      3798      3797      3796      3800      3798      3796      3800
      3800      3802      3803      3800      3802      3804      3801      3800      3802
      3802      3804      3805      3802      3804      3806      3802      3804      3807
      3803      3802      3804      3804      3807      3808      3804      3807      3809
      3804      3807      3810      3805      3804      3806      3805      3804      3807
      3806      3804      3807      3807      3810      3811      3807      3810      3812
      3807      3810      3813      3808      3807      3809      3808      3807      3810
      3809      3807      3810      3810      3813      3814      3810      3813      3815
      3810      3813      3816      3811      3810      3812      3811      3810      3813
      3812      3810      3813      3813      3816      3817      3813      3816      3818
      3813      3816      3819      3814      3813      3815      3814      3813      3816
      3815      3813      3816      3816      3819      3820      3816      3819      3821
      3816      3819      3822      3817      3816      3818      3817      3816      3819
      3818      3816      3819      3819      3822      3823      3819      3822      3824
      3819      3822      3825      3820      3819      3821      3820      3819      3822
      3821      3819      3822      3822      3825      3826      3822      3825      3827
      3822      3825      3828      3823      3822      3824      3823      3822      3825
      3824      3822      3825      3825      3828      3829      3825      3828      3830
      3825      3828      3831      3826      3825      3827      3826      3825      3828
      3827      3825      3828      3828      3831      3832      3828      3831      3833
      3828      3831      3834      3829      3828      3830      3829      3828      3831
      3830      3828      3831      3831      3834      3835      3831      3834      3836
      3831      3834      3837      3832      3831      3833      3832      3831      3834
      3833      3831      3834      3834      3837      3838      3834      3837      3839
      3834      3837      3840      3835      3834      3836      3835      3834      3837
      3836      3834      3837      3837      3840      3841      3837      3840      3842
      3837      3840      3843      3838      3837      3839      3838      3837      3840
      3839      3837      3840      3841      3840      3842      3841      3840      3843
      3842      3840      3843      3844      3846      3847      3844      3846      3848
      3844      3846      3849      3845      3844      3846      3846      3849      3850
      3846      3849      3851      3846      3849      3852      3847      3846      3848
      3847      3846      3849      3848      3846      3849      3849      3852      3853
      3849      3852      3854      3849      3852      3855      3850      3849      3851
      3850      3849      3852      3851      3849      3852      3852      3855      3856
      3852      3855      3857      3852      3855      3858      3853      3852      3854
      3853      3852      3855      3854      3852      3855      3855      3858      3859
      3855      3858      3860      3855      3858      3861      3856      3855      3857
      3856      3855      3858      3857      3855      3858      3858      3861      3862
      3858      3861      3863      3858      3861      3864      3859      3858      3860
      3859      3858      3861      3860      3858      3861      3861      3864      3865
      3861      3864      3866      3861      3864      3867      3862      3861      3863
      3862      3861      3864      3863      3861      3864      3864      3867      3868
      3864      3867      3869      3865      3864      3866      3865      3864      3867
      3866      3864      3867      3867      3869      3870      3867      3869      3871
      3868      3867      3869      3869      3871      3872      3869      3871      3873
      3869      3871      3874      3870      3869      3871      3871      3874      3875
      3871      3874      3876      3871      3874      3877      3872      3871      3873
      3872      3871      3874      3873      3871      3874      3874      3877      3878
      3874      3877      3879      3874      3877      3880      3875      3874      3876
      3875      3874      3877      3876      3874      3877      3877      3880      3881
      3877      3880      3882      3877      3880      3883      3878      3877      3879
      3878      3877      3880      3879      3877      3880      3880      3883      3884
      3880      3883      3885      3880      3883      3886      3881      3880      3882
      3881      3880      3883      3882      3880      3883      3883      3886      3887
      3883      3886      3888      3883      3886      3889      3884      3883      3885
      3884      3883      3886      3885      3883      3886      3886      3889      3890
      3886      3889      3891      3886      3889      3892      3887      3886      3888
      3887      3886      3889      3888      3886      3889      3889      3892      3893
      3889      3892      3894      3889      3892      3895      3890      3889      3891
      3890      3889      3892      3891      3889      3892      3893      3892      3894
      3893      3892      3895      3894      3892      3895      3896      3900      3901
      3896      3900      3902      3896      3900      3905      3897      3896      3898
      3897      3896      3899      3897      3896      3900      3898      3896      3899
      3898      3896      3900      3899      3896      3900      3900      3902      3903
      3900      3902      3904      3900      3905      3906      3900      3905      3907
      3900      3905      3911      3901      3900      3902      3901      3900      3905
      3902      3900      3905      3903      3902      3904      3905      3911      3908
      3906      3905      3907      3906      3905      3911      3907      3905      3911
      3908      3912      3913      3909      3908      3910      3909      3908      3911
      3909      3908      3912      3910      3908      3911      3910      3908      3912
      3911      3908      3912      3912      3913      3914      3912      3913      3915
      3912      3913      3916      3913      3916      3917      3913      3916      3918
      3913      3916      3924      3914      3913      3915      3914      3913      3916
      3915      3913      3916      3916      3918      3919      3916      3924      3925
      3916      3924      3926      3916      3924      3927      3917      3916      3918
      3917      3916      3924      3918      3916      3924      3918      3919      3920
      3918      3919      3921      3919      3921      3922      3919      3921      3923
      3919      3921      3933      3920      3919      3921      3921      3933      3934
      3921      3933      3935      3921      3933      3936      3922      3921      3923
      3922      3921      3933      3923      3921      3933      3924      3927      3928
      3925      3924      3926      3925      3924      3927      3926      3924      3927
      3927      3928      3929      3927      3928      3930      3928      3930      3931
      3928      3930      3932      3928      3930      3980      3929      3928      3930
      3930      3980      3981      3930      3980      3982      3930      3980      3983
      3931      3930      3932      3931      3930      3980      3932      3930      3980
      3933      3936      3937      3933      3936      3938      3933      3936      3939
      3934      3933      3935      3934      3933      3936      3935      3933      3936
      3936      3939      3940      3936      3939      3941      3937      3936      3938
      3937      3936      3939      3938      3936      3939      3939      3941      3942
      3939      3941      3943      3940      3939      3941      3941      3943      3944
      3941      3943      3945      3941      3943      3946      3942      3941      3943
      3943      3946      3947      3943      3946      3948      3944      3943      3945
      3944      3943      3946      3945      3943      3946      3946      3948      3949
      3946      3948      3950      3947      3946      3948      3948      3950      3951
      3948      3950      3952      3948      3950      3953      3949      3948      3950
      3950      3953      3954      3950      3953      3955      3951      3950      3952
      3951      3950      3953      3952      3950      3953      3953      3955      3956
      3953      3955      3957      3954      3953      3955      3955      3957      3958
      3955      3957      3959      3955      3957      3960      3956      3955      3957
      3957      3960      3961      3957      3960      3962      3958      3957      3959
      3958      3957      3960      3959      3957      3960      3960      3962      3963
      3960      3962      3964      3961      3960      3962      3962      3964      3965
      3962      3964      3966      3962      3964      3967      3963      3962      3964
      3964      3967      3968      3964      3967      3969      3964      3967      3970
      3965      3964      3966      3965      3964      3967      3966      3964      3967
      3967      3970      3971      3967      3970      3972      3967      3970      3973
      3968      3967      3969      3968      3967      3970      3969      3967      3970
      3970      3973      3974      3970      3973      3975      3970      3973      3976
      3971      3970      3972      3971      3970      3973      3972      3970      3973
      3973      3976      3977      3973      3976      3978      3973      3976      3979
      3974      3973      3975      3974      3973      3976      3975      3973      3976
      3977      3976      3978      3977      3976      3979      3978      3976      3979
      3980      3983      3984      3980      3983      3985      3980      3983      3986
      3981      3980      3982      3981      3980      3983      3982      3980      3983
      3983      3986      3987      3983      3986      3988      3983      3986      3989
      3984      3983      3985      3984      3983      3986      3985      3983      3986
      3986      3989      3990      3986      3989      3991      3986      3989      3992
      3987      3986      3988      3987      3986      3989      3988      3986      3989
      3989      3992      3993      3989      3992      3994      3989      3992      3995
      3990      3989      3991      3990      3989      3992      3991      3989      3992
      3992      3995      3996      3992      3995      3997      3992      3995      3998
      3993      3992      3994      3993      3992      3995      3994      3992      3995
      3995      3998      3999      3995      3998      4000      3995      3998      4001
      3996      3995      3997      3996      3995      3998      3997      3995      3998
      3998      4001      4002      3998      4001      4003      3998      4001      4004
      3999      3998      4000      3999      3998      4001      4000      3998      4001
      4001      4004      4005      4001      4004      4006      4001      4004      4007
      4002      4001      4003      4002      4001      4004      4003      4001      4004
      4004      4007      4008      4004      4007      4009      4004      4007      4010
      4005      4004      4006      4005      4004      4007      4006      4004      4007
      4007      4010      4011      4007      4010      4012      4007      4010      4013
      4008      4007      4009      4008      4007      4010      4009      4007      4010
      4010      4013      4014      4010      4013      4015      4010      4013      4016
      4011      4010      4012      4011      4010      4013      4012      4010      4013
      4013      4016      4017      4013      4016      4018      4013      4016      4019
      4014      4013      4015      4014      4013      4016      4015      4013      4016
      4016      4019      4020      4016      4019      4021      4016      4019      4022
      4017      4016      4018      4017      4016      4019      4018      4016      4019
      4019      4022      4023      4019      4022      4024      4019      4022      4025
      4020      4019      4021      4020      4019      4022      4021      4019      4022
      4022      4025      4026      4022      4025      4027      4022      4025      4028
      4023      4022      4024      4023      4022      4025      4024      4022      4025
      4026      4025      4027      4026      4025      4028      4027      4025      4028
      4029      4031      4032      4029      4033      4034      4029      4033      4035
      4029      4033      4036      4029      4075      4072      4029      4075      4076
      4029      4075      4077      4030      4029      4031      4030      4029      4033
      4030      4029      4075      4031      4029      4033      4031      4029      4075
      4033      4029      4075      4033      4036      4037      4033      4036      4067
      4034      4033      4035      4034      4033      4036      4035      4033      4036
      4036      4037      4038      4036      4037      4039      4036      4067      4065
      4036      4067      4068      4036      4067      4072      4037      4036      4067
      4037      4039      4040      4037      4039      4041      4037      4039      4042
      4038      4037      4039      4039      4042      4043      4039      4042      4044
      4039      4042      4065      4040      4039      4041      4040      4039      4042
      4041      4039      4042      4042      4044      4045      4042      4044      4046
      4042      4044      4054      4042      4065      4062      4042      4065      4066
      4042      4065      4067      4043      4042      4044      4043      4042      4065
      4044      4042      4065      4044      4046      4047      4044      4046      4048
      4044      4046      4049      4044      4054      4052      4044      4054      4055
      4044      4054      4059      4045      4044      4046      4045      4044      4054
      4046      4044      4054      4046      4049      4050      4046      4049      4051
      4046      4049      4052      4047      4046      4048      4047      4046      4049
      4048      4046      4049      4049      4052      4053      4049      4052      4054
      4049      4052      4078      4050      4049      4051      4050      4049      4052
      4051      4049      4052      4052      4054      4055      4052      4054      4059
      4052      4078      4079      4052      4078      4080      4052      4078      4084
      4053      4052      4054      4053      4052      4078      4054      4052      4078
      4054      4055      4056      4054      4055      4057      4054      4055      4058
      4054      4059      4060      4054      4059      4061      4054      4059      4062
      4055      4054      4059      4056      4055      4057      4056      4055      4058
      4057      4055      4058      4059      4062      4063      4059      4062      4064
      4059      4062      4065      4060      4059      4061      4060      4059      4062
      4061      4059      4062      4062      4065      4066      4062      4065      4067
      4063      4062      4064      4063      4062      4065      4064      4062      4065
      4065      4067      4068      4065      4067      4072      4066      4065      4067
      4067      4068      4069      4067      4068      4070      4067      4068      4071
      4067      4072      4073      4067      4072      4074      4067      4072      4075
      4068      4067      4072      4069      4068      4070      4069      4068      4071
      4070      4068      4071      4072      4075      4076      4072      4075      4077
      4073      4072      4074      4073      4072      4075      4074      4072      4075
      4076      4075      4077      4078      4080      4081      4078      4080      4082
      4078      4080      4083      4078      4084      4085      4078      4084      4086
      4078      4084      4087      4079      4078      4080      4079      4078      4084
      4080      4078      4084      4081      4080      4082      4081      4080      4083
      4082      4080      4083      4084      4087      4088      4084      4087      4089
      4084      4087      4090      4085      4084      4086      4085      4084      4087
      4086      4084      4087      4087      4090      4091      4087      4090      4092
      4087      4090      4093      4088      4087      4089      4088      4087      4090
      4089      4087      4090      4090      4093      4094      4090      4093      4095
      4090      4093      4099      4091      4090      4092      4091      4090      4093
      4092      4090      4093      4093      4095      4096      4093      4095      4097
      4093      4095      4098      4093      4099      4100      4093      4099      4101
      4093      4099      4102      4094      4093      4095      4094      4093      4099
      4095      4093      4099      4096      4095      4097      4096      4095      4098
      4097      4095      4098      4100      4099      4101      4100      4099      4102
      4101      4099      4102      4103      4107      4108      4103      4107      4109
      4103      4107      4110      4104      4103      4105      4104      4103      4106
      4104      4103      4107      4105      4103      4106      4105      4103      4107
      4106      4103      4107      4107      4110      4111      4107      4110      4112
      4107      4110      4116      4108      4107      4109      4108      4107      4110
      4109      4107      4110      4110      4116      4113      4111      4110      4112
      4111      4110      4116      4112      4110      4116      4113      4117      4118
      4114      4113      4115      4114      4113      4116      4114      4113      4117
      4115      4113      4116      4115      4113      4117      4116      4113      4117
      4117      4118      4119      4117      4118      4120      4117      4118      4121
      4118      4121      4122      4118      4121      4123      4118      4121      4129
      4119      4118      4120      4119      4118      4121      4120      4118      4121
      4121      4123      4124      4121      4129      4130      4121      4129      4131
      4121      4129      4132      4122      4121      4123      4122      4121      4129
      4123      4121      4129      4123      4124      4125      4123      4124      4126
      4124      4126      4127      4124      4126      4128      4124      4126      4138
      4125      4124      4126      4126      4138      4139      4126      4138      4140
      4126      4138      4141      4127      4126      4128      4127      4126      4138
      4128      4126      4138      4129      4132      4133      4130      4129      4131
      4130      4129      4132      4131      4129      4132      4132      4133      4134
      4132      4133      4135      4133      4135      4136      4133      4135      4137
      4133      4135      4185      4134      4133      4135      4135      4185      4186
      4135      4185      4187      4135      4185      4188      4136      4135      4137
      4136      4135      4185      4137      4135      4185      4138      4141      4142
      4138      4141      4143      4138      4141      4144      4139      4138      4140
      4139      4138      4141      4140      4138      4141      4141      4144      4145
      4141      4144      4146      4142      4141      4143      4142      4141      4144
      4143      4141      4144      4144      4146      4147      4144      4146      4148
      4145      4144      4146      4146      4148      4149      4146      4148      4150
      4146      4148      4151      4147      4146      4148      4148      4151      4152
      4148      4151      4153      4149      4148      4150      4149      4148      4151
      4150      4148      4151      4151      4153      4154      4151      4153      4155
      4152      4151      4153      4153      4155      4156      4153      4155      4157
      4153      4155      4158      4154      4153      4155      4155      4158      4159
      4155      4158      4160      4156      4155      4157      4156      4155      4158
      4157      4155      4158      4158      4160      4161      4158      4160      4162
      4159      4158      4160      4160      4162      4163      4160      4162      4164
      4160      4162      4165      4161      4160      4162      4162      4165      4166
      4162      4165      4167      4163      4162      4164      4163      4162      4165
      4164      4162      4165      4165      4167      4168      4165      4167      4169
      4166      4165      4167      4167      4169      4170      4167      4169      4171
      4167      4169      4172      4168      4167      4169      4169      4172      4173
      4169      4172      4174      4169      4172      4175      4170      4169      4171
      4170      4169      4172      4171      4169      4172      4172      4175      4176
      4172      4175      4177      4172      4175      4178      4173      4172      4174
      4173      4172      4175      4174      4172      4175      4175      4178      4179
      4175      4178      4180      4175      4178      4181      4176      4175      4177
      4176      4175      4178      4177      4175      4178      4178      4181      4182
      4178      4181      4183      4178      4181      4184      4179      4178      4180
      4179      4178      4181      4180      4178      4181      4182      4181      4183
      4182      4181      4184      4183      4181      4184      4185      4188      4189
      4185      4188      4190      4185      4188      4191      4186      4185      4187
      4186      4185      4188      4187      4185      4188      4188      4191      4192
      4188      4191      4193      4188      4191      4194      4189      4188      4190
      4189      4188      4191      4190      4188      4191      4191      4194      4195
      4191      4194      4196      4191      4194      4197      4192      4191      4193
      4192      4191      4194      4193      4191      4194      4194      4197      4198
      4194      4197      4199      4194      4197      4200      4195      4194      4196
      4195      4194      4197      4196      4194      4197      4197      4200      4201
      4197      4200      4202      4197      4200      4203      4198      4197      4199
      4198      4197      4200      4199      4197      4200      4200      4203      4204
      4200      4203      4205      4200      4203      4206      4201      4200      4202
      4201      4200      4203      4202      4200      4203      4203      4206      4207
      4203      4206      4208      4203      4206      4209      4204      4203      4205
      4204      4203      4206      4205      4203      4206      4206      4209      4210
      4206      4209      4211      4206      4209      4212      4207      4206      4208
      4207      4206      4209      4208      4206      4209      4209      4212      4213
      4209      4212      4214      4209      4212      4215      4210      4209      4211
      4210      4209      4212      4211      4209      4212      4212      4215      4216
      4212      4215      4217      4212      4215      4218      4213      4212      4214
      4213      4212      4215      4214      4212      4215      4215      4218      4219
      4215      4218      4220      4215      4218      4221      4216      4215      4217
      4216      4215      4218      4217      4215      4218      4218      4221      4222
      4218      4221      4223      4218      4221      4224      4219      4218      4220
      4219      4218      4221      4220      4218      4221      4221      4224      4225
      4221      4224      4226      4221      4224      4227      4222      4221      4223
      4222      4221      4224      4223      4221      4224      4224      4227      4228
      4224      4227      4229      4224      4227      4230      4225      4224      4226
      4225      4224      4227      4226      4224      4227      4227      4230      4231
      4227      4230      4232      4227      4230      4233      4228      4227      4229
      4228      4227      4230      4229      4227      4230      4231      4230      4232
      4231      4230      4233      4232      4230      4233      4234      4236      4237
      4234      4238      4239      4234      4238      4240      4234      4238      4242
      4234      4254      4250      4234      4254      4255      4234      4254      4259
      4235      4234      4236      4235      4234      4238      4235      4234      4254
      4236      4234      4238      4236      4234      4254      4238      4234      4254
      4238      4240      4241      4238      4242      4243      4238      4242      4244
      4238      4242      4246      4239      4238      4240      4239      4238      4242
      4240      4238      4242      4242      4244      4245      4242      4246      4247
      4242      4246      4248      4242      4246      4250      4243      4242      4244
      4243      4242      4246      4244      4242      4246      4246      4248      4249
      4246      4250      4251      4246      4250      4252      4246      4250      4254
      4247      4246      4248      4247      4246      4250      4248      4246      4250
      4250      4252      4253      4250      4254      4255      4250      4254      4259
      4251      4250      4252      4251      4250      4254      4252      4250      4254
      4254      4259      4256      4255      4254      4259      4256      4260      4261
      4257      4256      4258      4257      4256      4259      4257      4256      4260
      4258      4256      4259      4258      4256      4260      4259      4256      4260
      4260      4261      4262      4260      4261      4263      4260      4261      4264
      4261      4264      4265      4261      4264      4266      4261      4264      4272
      4262      4261      4263      4262      4261      4264      4263      4261      4264
      4264      4266      4267      4264      4272      4273      4264      4272      4274
      4264      4272      4275      4265      4264      4266      4265      4264      4272
      4266      4264      4272      4266      4267      4268      4266      4267      4269
      4267      4269      4270      4267      4269      4271      4267      4269      4281
      4268      4267      4269      4269      4281      4282      4269      4281      4283
      4269      4281      4284      4270      4269      4271      4270      4269      4281
      4271      4269      4281      4272      4275      4276      4273      4272      4274
      4273      4272      4275      4274      4272      4275      4275      4276      4277
      4275      4276      4278      4276      4278      4279      4276      4278      4280
      4276      4278      4328      4277      4276      4278      4278      4328      4329
      4278      4328      4330      4278      4328      4331      4279      4278      4280
      4279      4278      4328      4280      4278      4328      4281      4284      4285
      4281      4284      4286      4281      4284      4287      4282      4281      4283
      4282      4281      4284      4283      4281      4284      4284      4287      4288
      4284      4287      4289      4285      4284      4286      4285      4284      4287
      4286      4284      4287      4287      4289      4290      4287      4289      4291
      4288      4287      4289      4289      4291      4292      4289      4291      4293
      4289      4291      4294      4290      4289      4291      4291      4294      4295
      4291      4294      4296      4292      4291      4293      4292      4291      4294
      4293      4291      4294      4294      4296      4297      4294      4296      4298
      4295      4294      4296      4296      4298      4299      4296      4298      4300
      4296      4298      4301      4297      4296      4298      4298      4301      4302
      4298      4301      4303      4299      4298      4300      4299      4298      4301
      4300      4298      4301      4301      4303      4304      4301      4303      4305
      4302      4301      4303      4303      4305      4306      4303      4305      4307
      4303      4305      4308      4304      4303      4305      4305      4308      4309
      4305      4308      4310      4306      4305      4307      4306      4305      4308
      4307      4305      4308      4308      4310      4311      4308      4310      4312
      4309      4308      4310      4310      4312      4313      4310      4312      4314
      4310      4312      4315      4311      4310      4312      4312      4315      4316
      4312      4315      4317      4312      4315      4318      4313      4312      4314
      4313      4312      4315      4314      4312      4315      4315      4318      4319
      4315      4318      4320      4315      4318      4321      4316      4315      4317
      4316      4315      4318      4317      4315      4318      4318      4321      4322
      4318      4321      4323      4318      4321      4324      4319      4318      4320
      4319      4318      4321      4320      4318      4321      4321      4324      4325
      4321      4324      4326      4321      4324      4327      4322      4321      4323
      4322      4321      4324      4323      4321      4324      4325      4324      4326
      4325      4324      4327      4326      4324      4327      4328      4331      4332
      4328      4331      4333      4328      4331      4334      4329      4328      4330
      4329      4328      4331      4330      4328      4331      4331      4334      4335
      4331      4334      4336      4331      4334      4337      4332      4331      4333
      4332      4331      4334      4333      4331      4334      4334      4337      4338
      4334      4337      4339      4334      4337      4340      4335      4334      4336
      4335      4334      4337      4336      4334      4337      4337      4340      4341
      4337      4340      4342      4337      4340      4343      4338      4337      4339
      4338      4337      4340      4339      4337      4340      4340      4343      4344
      4340      4343      4345      4340      4343      4346      4341      4340      4342
      4341      4340      4343      4342      4340      4343      4343      4346      4347
      4343      4346      4348      4343      4346      4349      4344      4343      4345
      4344      4343      4346      4345      4343      4346      4346      4349      4350
      4346      4349      4351      4346      4349      4352      4347      4346      4348
      4347      4346      4349      4348      4346      4349      4349      4352      4353
      4349      4352      4354      4349      4352      4355      4350      4349      4351
      4350      4349      4352      4351      4349      4352      4352      4355      4356
      4352      4355      4357      4352      4355      4358      4353      4352      4354
      4353      4352      4355      4354      4352      4355      4355      4358      4359
      4355      4358      4360      4355      4358      4361      4356      4355      4357
      4356      4355      4358      4357      4355      4358      4358      4361      4362
      4358      4361      4363      4358      4361      4364      4359      4358      4360
      4359      4358      4361      4360      4358      4361      4361      4364      4365
      4361      4364      4366      4361      4364      4367      4362      4361      4363
      4362      4361      4364      4363      4361      4364      4364      4367      4368
      4364      4367      4369      4364      4367      4370      4365      4364      4366
      4365      4364      4367      4366      4364      4367      4367      4370      4371
      4367      4370      4372      4367      4370      4373      4368      4367      4369
      4368      4367      4370      4369      4367      4370      4370      4373      4374
      4370      4373      4375      4370      4373      4376      4371      4370      4372
      4371      4370      4373      4372      4370      4373      4374      4373      4375
      4374      4373      4376      4375      4373      4376      4377      4381      4382
      4377      4381      4383      4377      4381      4384      4378      4377      4379
      4378      4377      4380      4378      4377      4381      4379      4377      4380
      4379      4377      4381      4380      4377      4381      4381      4384      4385
      4381      4384      4386      4381      4384      4390      4382      4381      4383
      4382      4381      4384      4383      4381      4384      4384      4390      4387
      4385      4384      4386      4385      4384      4390      4386      4384      4390
      4387      4391      4392      4388      4387      4389      4388      4387      4390
      4388      4387      4391      4389      4387      4390      4389      4387      4391
      4390      4387      4391      4391      4392      4393      4391      4392      4394
      4391      4392      4395      4392      4395      4396      4392      4395      4397
      4392      4395      4403      4393      4392      4394      4393      4392      4395
      4394      4392      4395      4395      4397      4398      4395      4403      4404
      4395      4403      4405      4395      4403      4406      4396      4395      4397
      4396      4395      4403      4397      4395      4403      4397      4398      4399
      4397      4398      4400      4398      4400      4401      4398      4400      4402
      4398      4400      4412      4399      4398      4400      4400      4412      4413
      4400      4412      4414      4400      4412      4415      4401      4400      4402
      4401      4400      4412      4402      4400      4412      4403      4406      4407
      4404      4403      4405      4404      4403      4406      4405      4403      4406
      4406      4407      4408      4406      4407      4409      4407      4409      4410
      4407      4409      4411      4407      4409      4459      4408      4407      4409
      4409      4459      4460      4409      4459      4461      4409      4459      4462
      4410      4409      4411      4410      4409      4459      4411      4409      4459
      4412      4415      4416      4412      4415      4417      4412      4415      4418
      4413      4412      4414      4413      4412      4415      4414      4412      4415
      4415      4418      4419      4415      4418      4420      4416      4415      4417
      4416      4415      4418      4417      4415      4418      4418      4420      4421
      4418      4420      4422      4419      4418      4420      4420      4422      4423
      4420      4422      4424      4420      4422      4425      4421      4420      4422
      4422      4425      4426      4422      4425      4427      4423      4422      4424
      4423      4422      4425      4424      4422      4425      4425      4427      4428
      4425      4427      4429      4426      4425      4427      4427      4429      4430
      4427      4429      4431      4427      4429      4432      4428      4427      4429
      4429      4432      4433      4429      4432      4434      4430      4429      4431
      4430      4429      4432      4431      4429      4432      4432      4434      4435
      4432      4434      4436      4433      4432      4434      4434      4436      4437
      4434      4436      4438      4434      4436      4439      4435      4434      4436
      4436      4439      4440      4436      4439      4441      4437      4436      4438
      4437      4436      4439      4438      4436      4439      4439      4441      4442
      4439      4441      4443      4440      4439      4441      4441      4443      4444
      4441      4443      4445      4441      4443      4446      4442      4441      4443
      4443      4446      4447      4443      4446      4448      4443      4446      4449
      4444      4443      4445      4444      4443      4446      4445      4443      4446
      4446      4449      4450      4446      4449      4451      4446      4449      4452
      4447      4446      4448      4447      4446      4449      4448      4446      4449
      4449      4452      4453      4449      4452      4454      4449      4452      4455
      4450      4449      4451      4450      4449      4452      4451      4449      4452
      4452      4455      4456      4452      4455      4457      4452      4455      4458
      4453      4452      4454      4453      4452      4455      4454      4452      4455
      4456      4455      4457      4456      4455      4458      4457      4455      4458
      4459      4462      4463      4459      4462      4464      4459      4462      4465
      4460      4459      4461      4460      4459      4462      4461      4459      4462
      4462      4465      4466      4462      4465      4467      4462      4465      4468
      4463      4462      4464      4463      4462      4465      4464      4462      4465
      4465      4468      4469      4465      4468      4470      4465      4468      4471
      4466      4465      4467      4466      4465      4468      4467      4465      4468
      4468      4471      4472      4468      4471      4473      4468      4471      4474
      4469      4468      4470      4469      4468      4471      4470      4468      4471
      4471      4474      4475      4471      4474      4476      4471      4474      4477
      4472      4471      4473      4472      4471      4474      4473      4471      4474
      4474      4477      4478      4474      4477      4479      4474      4477      4480
      4475      4474      4476      4475      4474      4477      4476      4474      4477
      4477      4480      4481      4477      4480      4482      4477      4480      4483
      4478      4477      4479      4478      4477      4480      4479      4477      4480
      4480      4483      4484      4480      4483      4485      4480      4483      4486
      4481      4480      4482      4481      4480      4483      4482      4480      4483
      4483      4486      4487      4483      4486      4488      4483      4486      4489
      4484      4483      4485      4484      4483      4486      4485      4483      4486
      4486      4489      4490      4486      4489      4491      4486      4489      4492
      4487      4486      4488      4487      4486      4489      4488      4486      4489
      4489      4492      4493      4489      4492      4494      4489      4492      4495
      4490      4489      4491      4490      4489      4492      4491      4489      4492
      4492      4495      4496      4492      4495      4497      4492      4495      4498
      4493      4492      4494      4493      4492      4495      4494      4492      4495
      4495      4498      4499      4495      4498      4500      4495      4498      4501
      4496      4495      4497      4496      4495      4498      4497      4495      4498
      4498      4501      4502      4498      4501      4503      4498      4501      4504
      4499      4498      4500      4499      4498      4501      4500      4498      4501
      4501      4504      4505      4501      4504      4506      4501      4504      4507
      4502      4501      4503      4502      4501      4504      4503      4501      4504
      4505      4504      4506      4505      4504      4507      4506      4504      4507
      4508      4512      4513      4508      4512      4514      4508      4512      4515
      4509      4508      4510      4509      4508      4511      4509      4508      4512
      4510      4508      4511      4510      4508      4512      4511      4508      4512
      4512      4515      4516      4512      4515      4517      4512      4515      4521
      4513      4512      4514      4513      4512      4515      4514      4512      4515
      4515      4521      4518      4516      4515      4517      4516      4515      4521
      4517      4515      4521      4518      4522      4523      4519      4518      4520
      4519      4518      4521      4519      4518      4522      4520      4518      4521
      4520      4518      4522      4521      4518      4522      4522      4523      4524
      4522      4523      4525      4522      4523      4526      4523      4526      4527
      4523      4526      4528      4523      4526      4534      4524      4523      4525
      4524      4523      4526      4525      4523      4526      4526      4528      4529
      4526      4534      4535      4526      4534      4536      4526      4534      4537
      4527      4526      4528      4527      4526      4534      4528      4526      4534
      4528      4529      4530      4528      4529      4531      4529      4531      4532
      4529      4531      4533      4529      4531      4543      4530      4529      4531
      4531      4543      4544      4531      4543      4545      4531      4543      4546
      4532      4531      4533      4532      4531      4543      4533      4531      4543
      4534      4537      4538      4535      4534      4536      4535      4534      4537
      4536      4534      4537      4537      4538      4539      4537      4538      4540
      4538      4540      4541      4538      4540      4542      4538      4540      4590
      4539      4538      4540      4540      4590      4591      4540      4590      4592
      4540      4590      4593      4541      4540      4542      4541      4540      4590
      4542      4540      4590      4543      4546      4547      4543      4546      4548
      4543      4546      4549      4544      4543      4545      4544      4543      4546
      4545      4543      4546      4546      4549      4550      4546      4549      4551
      4547      4546      4548      4547      4546      4549      4548      4546      4549
      4549      4551      4552      4549      4551      4553      4550      4549      4551
      4551      4553      4554      4551      4553      4555      4551      4553      4556
      4552      4551      4553      4553      4556      4557      4553      4556      4558
      4554      4553      4555      4554      4553      4556      4555      4553      4556
      4556      4558      4559      4556      4558      4560      4557      4556      4558
      4558      4560      4561      4558      4560      4562      4558      4560      4563
      4559      4558      4560      4560      4563      4564      4560      4563      4565
      4561      4560      4562      4561      4560      4563      4562      4560      4563
      4563      4565      4566      4563      4565      4567      4564      4563      4565
      4565      4567      4568      4565      4567      4569      4565      4567      4570
      4566      4565      4567      4567      4570      4571      4567      4570      4572
      4568      4567      4569      4568      4567      4570      4569      4567      4570
      4570      4572      4573      4570      4572      4574      4571      4570      4572
      4572      4574      4575      4572      4574      4576      4572      4574      4577
      4573      4572      4574      4574      4577      4578      4574      4577      4579
      4574      4577      4580      4575      4574      4576      4575      4574      4577
      4576      4574      4577      4577      4580      4581      4577      4580      4582
      4577      4580      4583      4578      4577      4579      4578      4577      4580
      4579      4577      4580      4580      4583      4584      4580      4583      4585
      4580      4583      4586      4581      4580      4582      4581      4580      4583
      4582      4580      4583      4583      4586      4587      4583      4586      4588
      4583      4586      4589      4584      4583      4585      4584      4583      4586
      4585      4583      4586      4587      4586      4588      4587      4586      4589
      4588      4586      4589      4590      4593      4594      4590      4593      4595
      4590      4593      4596      4591      4590      4592      4591      4590      4593
      4592      4590      4593      4593      4596      4597      4593      4596      4598
      4593      4596      4599      4594      4593      4595      4594      4593      4596
      4595      4593      4596      4596      4599      4600      4596      4599      4601
      4596      4599      4602      4597      4596      4598      4597      4596      4599
      4598      4596      4599      4599      4602      4603      4599      4602      4604
      4599      4602      4605      4600      4599      4601      4600      4599      4602
      4601      4599      4602      4602      4605      4606      4602      4605      4607
      4602      4605      4608      4603      4602      4604      4603      4602      4605
      4604      4602      4605      4605      4608      4609      4605      4608      4610
      4605      4608      4611      4606      4605      4607      4606      4605      4608
      4607      4605      4608      4608      4611      4612      4608      4611      4613
      4608      4611      4614      4609      4608      4610      4609      4608      4611
      4610      4608      4611      4611      4614      4615      4611      4614      4616
      4611      4614      4617      4612      4611      4613      4612      4611      4614
      4613      4611      4614      4614      4617      4618      4614      4617      4619
      4614      4617      4620      4615      4614      4616      4615      4614      4617
      4616      4614      4617      4617      4620      4621      4617      4620      4622
      4617      4620      4623      4618      4617      4619      4618      4617      4620
      4619      4617      4620      4620      4623      4624      4620      4623      4625
      4620      4623      4626      4621      4620      4622      4621      4620      4623
      4622      4620      4623      4623      4626      4627      4623      4626      4628
      4623      4626      4629      4624      4623      4625      4624      4623      4626
      4625      4623      4626      4626      4629      4630      4626      4629      4631
      4626      4629      4632      4627      4626      4628      4627      4626      4629
      4628      4626      4629      4629      4632      4633      4629      4632      4634
      4629      4632      4635      4630      4629      4631      4630      4629      4632
      4631      4629      4632      4632      4635      4636      4632      4635      4637
      4632      4635      4638      4633      4632      4634      4633      4632      4635
      4634      4632      4635      4636      4635      4637      4636      4635      4638
      4637      4635      4638      4639      4641      4642      4639      4643      4644
      4639      4643      4645      4639      4643      4646      4639      4685      4682
      4639      4685      4686      4639      4685      4687      4640      4639      4641
      4640      4639      4643      4640      4639      4685      4641      4639      4643
      4641      4639      4685      4643      4639      4685      4643      4646      4647
      4643      4646      4677      4644      4643      4645      4644      4643      4646
      4645      4643      4646      4646      4647      4648      4646      4647      4649
      4646      4677      4675      4646      4677      4678      4646      4677      4682
      4647      4646      4677      4647      4649      4650      4647      4649      4651
      4647      4649      4652      4648      4647      4649      4649      4652      4653
      4649      4652      4654      4649      4652      4675      4650      4649      4651
      4650      4649      4652      4651      4649      4652      4652      4654      4655
      4652      4654      4656      4652      4654      4664      4652      4675      4672
      4652      4675      4676      4652      4675      4677      4653      4652      4654
      4653      4652      4675      4654      4652      4675      4654      4656      4657
      4654      4656      4658      4654      4656      4659      4654      4664      4662
      4654      4664      4665      4654      4664      4669      4655      4654      4656
      4655      4654      4664      4656      4654      4664      4656      4659      4660
      4656      4659      4661      4656      4659      4662      4657      4656      4658
      4657      4656      4659      4658      4656      4659      4659      4662      4663
      4659      4662      4664      4659      4662      4688      4660      4659      4661
      4660      4659      4662      4661      4659      4662      4662      4664      4665
      4662      4664      4669      4662      4688      4689      4662      4688      4690
      4662      4688      4694      4663      4662      4664      4663      4662      4688
      4664      4662      4688      4664      4665      4666      4664      4665      4667
      4664      4665      4668      4664      4669      4670      4664      4669      4671
      4664      4669      4672      4665      4664      4669      4666      4665      4667
      4666      4665      4668      4667      4665      4668      4669      4672      4673
      4669      4672      4674      4669      4672      4675      4670      4669      4671
      4670      4669      4672      4671      4669      4672      4672      4675      4676
      4672      4675      4677      4673      4672      4674      4673      4672      4675
      4674      4672      4675      4675      4677      4678      4675      4677      4682
      4676      4675      4677      4677      4678      4679      4677      4678      4680
      4677      4678      4681      4677      4682      4683      4677      4682      4684
      4677      4682      4685      4678      4677      4682      4679      4678      4680
      4679      4678      4681      4680      4678      4681      4682      4685      4686
      4682      4685      4687      4683      4682      4684      4683      4682      4685
      4684      4682      4685      4686      4685      4687      4688      4690      4691
      4688      4690      4692      4688      4690      4693      4688      4694      4695
      4688      4694      4696      4688      4694      4697      4689      4688      4690
      4689      4688      4694      4690      4688      4694      4691      4690      4692
      4691      4690      4693      4692      4690      4693      4694      4697      4698
      4694      4697      4699      4694      4697      4700      4695      4694      4696
      4695      4694      4697      4696      4694      4697      4697      4700      4701
      4697      4700      4702      4697      4700      4703      4698      4697      4699
      4698      4697      4700      4699      4697      4700      4700      4703      4704
      4700      4703      4705      4700      4703      4709      4701      4700      4702
      4701      4700      4703      4702      4700      4703      4703      4705      4706
      4703      4705      4707      4703      4705      4708      4703      4709      4710
      4703      4709      4711      4703      4709      4712      4704      4703      4705
      4704      4703      4709      4705      4703      4709      4706      4705      4707
      4706      4705      4708      4707      4705      4708      4710      4709      4711
      4710      4709      4712      4711      4709      4712      4713      4717      4718
      4713      4717      4719      4713      4717      4720      4714      4713      4715
      4714      4713      4716      4714      4713      4717      4715      4713      4716
      4715      4713      4717      4716      4713      4717      4717      4720      4721
      4717      4720      4722      4717      4720      4726      4718      4717      4719
      4718      4717      4720      4719      4717      4720      4720      4726      4723
      4721      4720      4722      4721      4720      4726      4722      4720      4726
      4723      4727      4728      4724      4723      4725      4724      4723      4726
      4724      4723      4727      4725      4723      4726      4725      4723      4727
      4726      4723      4727      4727      4728      4729      4727      4728      4730
      4727      4728      4731      4728      4731      4732      4728      4731      4733
      4728      4731      4739      4729      4728      4730      4729      4728      4731
      4730      4728      4731      4731      4733      4734      4731      4739      4740
      4731      4739      4741      4731      4739      4742      4732      4731      4733
      4732      4731      4739      4733      4731      4739      4733      4734      4735
      4733      4734      4736      4734      4736      4737      4734      4736      4738
      4734      4736      4748      4735      4734      4736      4736      4748      4749
      4736      4748      4750      4736      4748      4751      4737      4736      4738
      4737      4736      4748      4738      4736      4748      4739      4742      4743
      4740      4739      4741      4740      4739      4742      4741      4739      4742
      4742      4743      4744      4742      4743      4745      4743      4745      4746
      4743      4745      4747      4743      4745      4795      4744      4743      4745
      4745      4795      4796      4745      4795      4797      4745      4795      4798
      4746      4745      4747      4746      4745      4795      4747      4745      4795
      4748      4751      4752      4748      4751      4753      4748      4751      4754
      4749      4748      4750      4749      4748      4751      4750      4748      4751
      4751      4754      4755      4751      4754      4756      4752      4751      4753
      4752      4751      4754      4753      4751      4754      4754      4756      4757
      4754      4756      4758      4755      4754      4756      4756      4758      4759
      4756      4758      4760      4756      4758      4761      4757      4756      4758
      4758      4761      4762      4758      4761      4763      4759      4758      4760
      4759      4758      4761      4760      4758      4761      4761      4763      4764
      4761      4763      4765      4762      4761      4763      4763      4765      4766
      4763      4765      4767      4763      4765      4768      4764      4763      4765
      4765      4768      4769      4765      4768      4770      4766      4765      4767
      4766      4765      4768      4767      4765      4768      4768      4770      4771
      4768      4770      4772      4769      4768      4770      4770      4772      4773
      4770      4772      4774      4770      4772      4775      4771      4770      4772
      4772      4775      4776      4772      4775      4777      4773      4772      4774
      4773      4772      4775      4774      4772      4775      4775      4777      4778
      4775      4777      4779      4776      4775      4777      4777      4779      4780
      4777      4779      4781      4777      4779      4782      4778      4777      4779
      4779      4782      4783      4779      4782      4784      4779      4782      4785
      4780      4779      4781      4780      4779      4782      4781      4779      4782
      4782      4785      4786      4782      4785      4787      4782      4785      4788
      4783      4782      4784      4783      4782      4785      4784      4782      4785
      4785      4788      4789      4785      4788      4790      4785      4788      4791
      4786      4785      4787      4786      4785      4788      4787      4785      4788
      4788      4791      4792      4788      4791      4793      4788      4791      4794
      4789      4788      4790      4789      4788      4791      4790      4788      4791
      4792      4791      4793      4792      4791      4794      4793      4791      4794
      4795      4798      4799      4795      4798      4800      4795      4798      4801
      4796      4795      4797      4796      4795      4798      4797      4795      4798
      4798      4801      4802      4798      4801      4803      4798      4801      4804
      4799      4798      4800      4799      4798      4801      4800      4798      4801
      4801      4804      4805      4801      4804      4806      4801      4804      4807
      4802      4801      4803      4802      4801      4804      4803      4801      4804
      4804      4807      4808      4804      4807      4809      4804      4807      4810
      4805      4804      4806      4805      4804      4807      4806      4804      4807
      4807      4810      4811      4807      4810      4812      4807      4810      4813
      4808      4807      4809      4808      4807      4810      4809      4807      4810
      4810      4813      4814      4810      4813      4815      4810      4813      4816
      4811      4810      4812      4811      4810      4813      4812      4810      4813
      4813      4816      4817      4813      4816      4818      4813      4816      4819
      4814      4813      4815      4814      4813      4816      4815      4813      4816
      4816      4819      4820      4816      4819      4821      4816      4819      4822
      4817      4816      4818      4817      4816      4819      4818      4816      4819
      4819      4822      4823      4819      4822      4824      4819      4822      4825
      4820      4819      4821      4820      4819      4822      4821      4819      4822
      4822      4825      4826      4822      4825      4827      4822      4825      4828
      4823      4822      4824      4823      4822      4825      4824      4822      4825
      4825      4828      4829      4825      4828      4830      4825      4828      4831
      4826      4825      4827      4826      4825      4828      4827      4825      4828
      4828      4831      4832      4828      4831      4833      4828      4831      4834
      4829      4828      4830      4829      4828      4831      4830      4828      4831
      4831      4834      4835      4831      4834      4836      4831      4834      4837
      4832      4831      4833      4832      4831      4834      4833      4831      4834
      4834      4837      4838      4834      4837      4839      4834      4837      4840
      4835      4834      4836      4835      4834      4837      4836      4834      4837
      4837      4840      4841      4837      4840      4842      4837      4840      4843
      4838      4837      4839      4838      4837      4840      4839      4837      4840
      4841      4840      4842      4841      4840      4843      4842      4840      4843
      4844      4845      4846      4844      4845      4847      4844      4845      4848
      4844      4849      4850      4844      4849      4851      4844      4849      4852
      4844      4853      4854      4844      4853      4855      4844      4853      4856
      4844      4857      4858      4844      4857      4859      4844      4857      4860
      4845      4844      4849      4845      4844      4853      4845      4844      4857
      4846      4845      4847      4846      4845      4848      4847      4845      4848
      4849      4844      4853      4849      4844      4857      4850      4849      4851
      4850      4849      4852      4851      4849      4852      4853      4844      4857
      4854      4853      4855      4854      4853      4856      4855      4853      4856
      4857      4860      4861      4857      4860      4862      4857      4860      4867
      4858      4857      4859      4858      4857      4860      4859      4857      4860
      4860      4867      4863      4861      4860      4862      4861      4860      4867
      4862      4860      4867      4863      4866      4868      4864      4863      4865
      4864      4863      4866      4864      4863      4867      4865      4863      4866
      4865      4863      4867      4866      4863      4867      4866      4868      4869
      4866      4868      4870      4866      4868      4873      4868      4873      4871
      4868      4873      4874      4868      4873      4875      4869      4868      4870
      4869      4868      4873      4870      4868      4873      4871      4873      4874
      4871      4873      4875      4871      4923      4924      4871      4923      4925
      4872      4871      4873      4872      4871      4923      4873      4871      4923
      4873      4875      4876      4873      4875      4877      4873      4875      4879
      4874      4873      4875      4875      4877      4878      4875      4879      4880
      4875      4879      4881      4876      4875      4877      4876      4875      4879
      4877      4875      4879      4879      4881      4882      4879      4881      4883
      4880      4879      4881      4881      4883      4884      4881      4883      4885
      4881      4883      4886      4882      4881      4883      4883      4886      4887
      4883      4886      4888      4883      4886      4889      4884      4883      4885
      4884      4883      4886      4885      4883      4886      4886      4889      4890
      4886      4889      4891      4886      4889      4892      4887      4886      4888
      4887      4886      4889      4888      4886      4889      4889      4892      4893
      4889      4892      4894      4889      4892      4895      4890      4889      4891
      4890      4889      4892      4891      4889      4892      4892      4895      4896
      4892      4895      4897      4892      4895      4898      4893      4892      4894
      4893      4892      4895      4894      4892      4895      4895      4898      4899
      4895      4898      4900      4895      4898      4901      4896      4895      4897
      4896      4895      4898      4897      4895      4898      4898      4901      4902
      4898      4901      4903      4898      4901      4904      4899      4898      4900
      4899      4898      4901      4900      4898      4901      4901      4904      4905
      4901      4904      4906      4901      4904      4907      4902      4901      4903
      4902      4901      4904      4903      4901      4904      4904      4907      4908
      4904      4907      4909      4904      4907      4910      4905      4904      4906
      4905      4904      4907      4906      4904      4907      4907      4910      4911
      4907      4910      4912      4907      4910      4913      4908      4907      4909
      4908      4907      4910      4909      4907      4910      4910      4913      4914
      4910      4913      4915      4910      4913      4916      4911      4910      4912
      4911      4910      4913      4912      4910      4913      4913      4916      4917
      4913      4916      4918      4913      4916      4919      4914      4913      4915
      4914      4913      4916      4915      4913      4916      4916      4919      4920
      4916      4919      4921      4916      4919      4922      4917      4916      4918
      4917      4916      4919      4918      4916      4919      4920      4919      4921
      4920      4919      4922      4921      4919      4922      4923      4925      4926
      4923      4925      4927      4923      4925      4928      4924      4923      4925
      4925      4928      4929      4925      4928      4930      4925      4928      4931
      4926      4925      4927      4926      4925      4928      4927      4925      4928
      4928      4931      4932      4928      4931      4933      4928      4931      4934
      4929      4928      4930      4929      4928      4931      4930      4928      4931
      4931      4934      4935      4931      4934      4936      4931      4934      4937
      4932      4931      4933      4932      4931      4934      4933      4931      4934
      4934      4937      4938      4934      4937      4939      4934      4937      4940
      4935      4934      4936      4935      4934      4937      4936      4934      4937
      4937      4940      4941      4937      4940      4942      4937      4940      4943
      4938      4937      4939      4938      4937      4940      4939      4937      4940
      4940      4943      4944      4940      4943      4945      4940      4943      4946
      4941      4940      4942      4941      4940      4943      4942      4940      4943
      4943      4946      4947      4943      4946      4948      4944      4943      4945
      4944      4943      4946      4945      4943      4946      4946      4948      4949
      4946      4948      4950      4947      4946      4948      4948      4950      4951
      4948      4950      4952      4948      4950      4953      4949      4948      4950
      4950      4953      4954      4950      4953      4955      4950      4953      4956
      4951      4950      4952      4951      4950      4953      4952      4950      4953
      4953      4956      4957      4953      4956      4958      4953      4956      4959
      4954      4953      4955      4954      4953      4956      4955      4953      4956
      4956      4959      4960      4956      4959      4961      4956      4959      4962
      4957      4956      4958      4957      4956      4959      4958      4956      4959
      4959      4962      4963      4959      4962      4964      4959      4962      4965
      4960      4959      4961      4960      4959      4962      4961      4959      4962
      4962      4965      4966      4962      4965      4967      4962      4965      4968
      4963      4962      4964      4963      4962      4965      4964      4962      4965
      4965      4968      4969      4965      4968      4970      4965      4968      4971
      4966      4965      4967      4966      4965      4968      4967      4965      4968
      4968      4971      4972      4968      4971      4973      4968      4971      4974
      4969      4968      4970      4969      4968      4971      4970      4968      4971
      4972      4971      4973      4972      4971      4974      4973      4971      4974
      4975      4979      4980      4975      4979      4981      4975      4979      4982
      4976      4975      4977      4976      4975      4978      4976      4975      4979
      4977      4975      4978      4977      4975      4979      4978      4975      4979
      4979      4982      4983      4979      4982      4984      4979      4982      4988
      4980      4979      4981      4980      4979      4982      4981      4979      4982
      4982      4988      4985      4983      4982      4984      4983      4982      4988
      4984      4982      4988      4985      4989      4990      4986      4985      4987
      4986      4985      4988      4986      4985      4989      4987      4985      4988
      4987      4985      4989      4988      4985      4989      4989      4990      4991
      4989      4990      4992      4989      4990      4993      4990      4993      4994
      4990      4993      4995      4990      4993      5001      4991      4990      4992
      4991      4990      4993      4992      4990      4993      4993      4995      4996
      4993      5001      5002      4993      5001      5003      4993      5001      5004
      4994      4993      4995      4994      4993      5001      4995      4993      5001
      4995      4996      4997      4995      4996      4998      4996      4998      4999
      4996      4998      5000      4996      4998      5010      4997      4996      4998
      4998      5010      5011      4998      5010      5012      4998      5010      5013
      4999      4998      5000      4999      4998      5010      5000      4998      5010
      5001      5004      5005      5002      5001      5003      5002      5001      5004
      5003      5001      5004      5004      5005      5006      5004      5005      5007
      5005      5007      5008      5005      5007      5009      5005      5007      5057
      5006      5005      5007      5007      5057      5058      5007      5057      5059
      5007      5057      5060      5008      5007      5009      5008      5007      5057
      5009      5007      5057      5010      5013      5014      5010      5013      5015
      5010      5013      5016      5011      5010      5012      5011      5010      5013
      5012      5010      5013      5013      5016      5017      5013      5016      5018
      5013      5016      5019      5014      5013      5015      5014      5013      5016
      5015      5013      5016      5016      5019      5020      5016      5019      5021
      5016      5019      5022      5017      5016      5018      5017      5016      5019
      5018      5016      5019      5019      5022      5023      5019      5022      5024
      5019      5022      5025      5020      5019      5021      5020      5019      5022
      5021      5019      5022      5022      5025      5026      5022      5025      5027
      5022      5025      5028      5023      5022      5024      5023      5022      5025
      5024      5022      5025      5025      5028      5029      5025      5028      5030
      5026      5025      5027      5026      5025      5028      5027      5025      5028
      5028      5030      5031      5028      5030      5032      5029      5028      5030
      5030      5032      5033      5030      5032      5034      5030      5032      5035
      5031      5030      5032      5032      5035      5036      5032      5035      5037
      5032      5035      5038      5033      5032      5034      5033      5032      5035
      5034      5032      5035      5035      5038      5039      5035      5038      5040
      5035      5038      5041      5036      5035      5037      5036      5035      5038
      5037      5035      5038      5038      5041      5042      5038      5041      5043
      5038      5041      5044      5039      5038      5040      5039      5038      5041
      5040      5038      5041      5041      5044      5045      5041      5044      5046
      5041      5044      5047      5042      5041      5043      5042      5041      5044
      5043      5041      5044      5044      5047      5048      5044      5047      5049
      5044      5047      5050      5045      5044      5046      5045      5044      5047
      5046      5044      5047      5047      5050      5051      5047      5050      5052
      5047      5050      5053      5048      5047      5049      5048      5047      5050
      5049      5047      5050      5050      5053      5054      5050      5053      5055
      5050      5053      5056      5051      5050      5052      5051      5050      5053
      5052      5050      5053      5054      5053      5055      5054      5053      5056
      5055      5053      5056      5057      5060      5061      5057      5060      5062
      5057      5060      5063      5058      5057      5059      5058      5057      5060
      5059      5057      5060      5060      5063      5064      5060      5063      5065
      5060      5063      5066      5061      5060      5062      5061      5060      5063
      5062      5060      5063      5063      5066      5067      5063      5066      5068
      5063      5066      5069      5064      5063      5065      5064      5063      5066
      5065      5063      5066      5066      5069      5070      5066      5069      5071
      5066      5069      5072      5067      5066      5068      5067      5066      5069
      5068      5066      5069      5069      5072      5073      5069      5072      5074
      5069      5072      5075      5070      5069      5071      5070      5069      5072
      5071      5069      5072      5072      5075      5076      5072      5075      5077
      5072      5075      5078      5073      5072      5074      5073      5072      5075
      5074      5072      5075      5075      5078      5079      5075      5078      5080
      5075      5078      5081      5076      5075      5077      5076      5075      5078
      5077      5075      5078      5078      5081      5082      5078      5081      5083
      5078      5081      5084      5079      5078      5080      5079      5078      5081
      5080      5078      5081      5081      5084      5085      5081      5084      5086
      5081      5084      5087      5082      5081      5083      5082      5081      5084
      5083      5081      5084      5084      5087      5088      5084      5087      5089
      5084      5087      5090      5085      5084      5086      5085      5084      5087
      5086      5084      5087      5087      5090      5091      5087      5090      5092
      5087      5090      5093      5088      5087      5089      5088      5087      5090
      5089      5087      5090      5090      5093      5094      5090      5093      5095
      5090      5093      5096      5091      5090      5092      5091      5090      5093
      5092      5090      5093      5093      5096      5097      5093      5096      5098
      5093      5096      5099      5094      5093      5095      5094      5093      5096
      5095      5093      5096      5096      5099      5100      5096      5099      5101
      5096      5099      5102      5097      5096      5098      5097      5096      5099
      5098      5096      5099      5099      5102      5103      5099      5102      5104
      5099      5102      5105      5100      5099      5101      5100      5099      5102
      5101      5099      5102      5103      5102      5104      5103      5102      5105
      5104      5102      5105      5106      5108      5109      5106      5110      5111
      5106      5110      5112      5106      5110      5113      5106      5152      5149
      5106      5152      5153      5106      5152      5154      5107      5106      5108
      5107      5106      5110      5107      5106      5152      5108      5106      5110
      5108      5106      5152      5110      5106      5152      5110      5113      5114
      5110      5113      5144      5111      5110      5112      5111      5110      5113
      5112      5110      5113      5113      5114      5115      5113      5114      5116
      5113      5144      5142      5113      5144      5145      5113      5144      5149
      5114      5113      5144      5114      5116      5117      5114      5116      5118
      5114      5116      5119      5115      5114      5116      5116      5119      5120
      5116      5119      5121      5116      5119      5142      5117      5116      5118
      5117      5116      5119      5118      5116      5119      5119      5121      5122
      5119      5121      5123      5119      5121      5131      5119      5142      5139
      5119      5142      5143      5119      5142      5144      5120      5119      5121
      5120      5119      5142      5121      5119      5142      5121      5123      5124
      5121      5123      5125      5121      5123      5126      5121      5131      5129
      5121      5131      5132      5121      5131      5136      5122      5121      5123
      5122      5121      5131      5123      5121      5131      5123      5126      5127
      5123      5126      5128      5123      5126      5129      5124      5123      5125
      5124      5123      5126      5125      5123      5126      5126      5129      5130
      5126      5129      5131      5126      5129      5155      5127      5126      5128
      5127      5126      5129      5128      5126      5129      5129      5131      5132
      5129      5131      5136      5129      5155      5156      5129      5155      5157
      5129      5155      5161      5130      5129      5131      5130      5129      5155
      5131      5129      5155      5131      5132      5133      5131      5132      5134
      5131      5132      5135      5131      5136      5137      5131      5136      5138
      5131      5136      5139      5132      5131      5136      5133      5132      5134
      5133      5132      5135      5134      5132      5135      5136      5139      5140
      5136      5139      5141      5136      5139      5142      5137      5136      5138
      5137      5136      5139      5138      5136      5139      5139      5142      5143
      5139      5142      5144      5140      5139      5141      5140      5139      5142
      5141      5139      5142      5142      5144      5145      5142      5144      5149
      5143      5142      5144      5144      5145      5146      5144      5145      5147
      5144      5145      5148      5144      5149      5150      5144      5149      5151
      5144      5149      5152      5145      5144      5149      5146      5145      5147
      5146      5145      5148      5147      5145      5148      5149      5152      5153
      5149      5152      5154      5150      5149      5151      5150      5149      5152
      5151      5149      5152      5153      5152      5154      5155      5157      5158
      5155      5157      5159      5155      5157      5160      5155      5161      5162
      5155      5161      5163      5155      5161      5164      5156      5155      5157
      5156      5155      5161      5157      5155      5161      5158      5157      5159
      5158      5157      5160      5159      5157      5160      5161      5164      5165
      5161      5164      5166      5161      5164      5167      5162      5161      5163
      5162      5161      5164      5163      5161      5164      5164      5167      5168
      5164      5167      5169      5164      5167      5170      5165      5164      5166
      5165      5164      5167      5166      5164      5167      5167      5170      5171
      5167      5170      5172      5167      5170      5176      5168      5167      5169
      5168      5167      5170      5169      5167      5170      5170      5172      5173
      5170      5172      5174      5170      5172      5175      5170      5176      5177
      5170      5176      5178      5170      5176      5179      5171      5170      5172
      5171      5170      5176      5172      5170      5176      5173      5172      5174
      5173      5172      5175      5174      5172      5175      5177      5176      5178
      5177      5176      5179      5178      5176      5179      5180      5182      5183
      5180      5184      5185      5180      5184      5186      5180      5184      5187
      5180      5226      5223      5180      5226      5227      5180      5226      5228
      5181      5180      5182      5181      5180      5184      5181      5180      5226
      5182      5180      5184      5182      5180      5226      5184      5180      5226
      5184      5187      5188      5184      5187      5218      5185      5184      5186
      5185      5184      5187      5186      5184      5187      5187      5188      5189
      5187      5188      5190      5187      5218      5216      5187      5218      5219
      5187      5218      5223      5188      5187      5218      5188      5190      5191
      5188      5190      5192      5188      5190      5193      5189      5188      5190
      5190      5193      5194      5190      5193      5195      5190      5193      5216
      5191      5190      5192      5191      5190      5193      5192      5190      5193
      5193      5195      5196      5193      5195      5197      5193      5195      5205
      5193      5216      5213      5193      5216      5217      5193      5216      5218
      5194      5193      5195      5194      5193      5216      5195      5193      5216
      5195      5197      5198      5195      5197      5199      5195      5197      5200
      5195      5205      5203      5195      5205      5206      5195      5205      5210
      5196      5195      5197      5196      5195      5205      5197      5195      5205
      5197      5200      5201      5197      5200      5202      5197      5200      5203
      5198      5197      5199      5198      5197      5200      5199      5197      5200
      5200      5203      5204      5200      5203      5205      5200      5203      5229
      5201      5200      5202      5201      5200      5203      5202      5200      5203
      5203      5205      5206      5203      5205      5210      5203      5229      5230
      5203      5229      5231      5203      5229      5235      5204      5203      5205
      5204      5203      5229      5205      5203      5229      5205      5206      5207
      5205      5206      5208      5205      5206      5209      5205      5210      5211
      5205      5210      5212      5205      5210      5213      5206      5205      5210
      5207      5206      5208      5207      5206      5209      5208      5206      5209
      5210      5213      5214      5210      5213      5215      5210      5213      5216
      5211      5210      5212      5211      5210      5213      5212      5210      5213
      5213      5216      5217      5213      5216      5218      5214      5213      5215
      5214      5213      5216      5215      5213      5216      5216      5218      5219
      5216      5218      5223      5217      5216      5218      5218      5219      5220
      5218      5219      5221      5218      5219      5222      5218      5223      5224
      5218      5223      5225      5218      5223      5226      5219      5218      5223
      5220      5219      5221      5220      5219      5222      5221      5219      5222
      5223      5226      5227      5223      5226      5228      5224      5223      5225
      5224      5223      5226      5225      5223      5226      5227      5226      5228
      5229      5231      5232      5229      5231      5233      5229      5231      5234
      5229      5235      5236      5229      5235      5237      5229      5235      5238
      5230      5229      5231      5230      5229      5235      5231      5229      5235
      5232      5231      5233      5232      5231      5234      5233      5231      5234
      5235      5238      5239      5235      5238      5240      5235      5238      5241
      5236      5235      5237      5236      5235      5238      5237      5235      5238
      5238      5241      5242      5238      5241      5243      5238      5241      5244
      5239      5238      5240      5239      5238      5241      5240      5238      5241
      5241      5244      5245      5241      5244      5246      5241      5244      5250
      5242      5241      5243      5242      5241      5244      5243      5241      5244
      5244      5246      5247      5244      5246      5248      5244      5246      5249
      5244      5250      5251      5244      5250      5252      5244      5250      5253
      5245      5244      5246      5245      5244      5250      5246      5244      5250
      5247      5246      5248      5247      5246      5249      5248      5246      5249
      5251      5250      5252      5251      5250      5253      5252      5250      5253
      5254      5258      5259      5254      5258      5260      5254      5258      5261
      5255      5254      5256      5255      5254      5257      5255      5254      5258
      5256      5254      5257      5256      5254      5258      5257      5254      5258
      5258      5261      5262      5258      5261      5263      5258      5261      5267
      5259      5258      5260      5259      5258      5261      5260      5258      5261
      5261      5267      5264      5262      5261      5263      5262      5261      5267
      5263      5261      5267      5264      5268      5269      5265      5264      5266
      5265      5264      5267      5265      5264      5268      5266      5264      5267
      5266      5264      5268      5267      5264      5268      5268      5269      5270
      5268      5269      5271      5268      5269      5272      5269      5272      5273
      5269      5272      5274      5269      5272      5280      5270      5269      5271
      5270      5269      5272      5271      5269      5272      5272      5274      5275
      5272      5280      5281      5272      5280      5282      5272      5280      5283
      5273      5272      5274      5273      5272      5280      5274      5272      5280
      5274      5275      5276      5274      5275      5277      5275      5277      5278
      5275      5277      5279      5275      5277      5289      5276      5275      5277
      5277      5289      5290      5277      5289      5291      5277      5289      5292
      5278      5277      5279      5278      5277      5289      5279      5277      5289
      5280      5283      5284      5281      5280      5282      5281      5280      5283
      5282      5280      5283      5283      5284      5285      5283      5284      5286
      5284      5286      5287      5284      5286      5288      5284      5286      5336
      5285      5284      5286      5286      5336      5337      5286      5336      5338
      5286      5336      5339      5287      5286      5288      5287      5286      5336
      5288      5286      5336      5289      5292      5293      5289      5292      5294
      5289      5292      5295      5290      5289      5291      5290      5289      5292
      5291      5289      5292      5292      5295      5296      5292      5295      5297
      5293      5292      5294      5293      5292      5295      5294      5292      5295
      5295      5297      5298      5295      5297      5299      5296      5295      5297
      5297      5299      5300      5297      5299      5301      5297      5299      5302
      5298      5297      5299      5299      5302      5303      5299      5302      5304
      5300      5299      5301      5300      5299      5302      5301      5299      5302
      5302      5304      5305      5302      5304      5306      5303      5302      5304
      5304      5306      5307      5304      5306      5308      5304      5306      5309
      5305      5304      5306      5306      5309      5310      5306      5309      5311
      5307      5306      5308      5307      5306      5309      5308      5306      5309
      5309      5311      5312      5309      5311      5313      5310      5309      5311
      5311      5313      5314      5311      5313      5315      5311      5313      5316
      5312      5311      5313      5313      5316      5317      5313      5316      5318
      5314      5313      5315      5314      5313      5316      5315      5313      5316
      5316      5318      5319      5316      5318      5320      5317      5316      5318
      5318      5320      5321      5318      5320      5322      5318      5320      5323
      5319      5318      5320      5320      5323      5324      5320      5323      5325
      5320      5323      5326      5321      5320      5322      5321      5320      5323
      5322      5320      5323      5323      5326      5327      5323      5326      5328
      5323      5326      5329      5324      5323      5325      5324      5323      5326
      5325      5323      5326      5326      5329      5330      5326      5329      5331
      5326      5329      5332      5327      5326      5328      5327      5326      5329
      5328      5326      5329      5329      5332      5333      5329      5332      5334
      5329      5332      5335      5330      5329      5331      5330      5329      5332
      5331      5329      5332      5333      5332      5334      5333      5332      5335
      5334      5332      5335      5336      5339      5340      5336      5339      5341
      5336      5339      5342      5337      5336      5338      5337      5336      5339
      5338      5336      5339      5339      5342      5343      5339      5342      5344
      5339      5342      5345      5340      5339      5341      5340      5339      5342
      5341      5339      5342      5342      5345      5346      5342      5345      5347
      5342      5345      5348      5343      5342      5344      5343      5342      5345
      5344      5342      5345      5345      5348      5349      5345      5348      5350
      5345      5348      5351      5346      5345      5347      5346      5345      5348
      5347      5345      5348      5348      5351      5352      5348      5351      5353
      5348      5351      5354      5349      5348      5350      5349      5348      5351
      5350      5348      5351      5351      5354      5355      5351      5354      5356
      5351      5354      5357      5352      5351      5353      5352      5351      5354
      5353      5351      5354      5354      5357      5358      5354      5357      5359
      5354      5357      5360      5355      5354      5356      5355      5354      5357
      5356      5354      5357      5357      5360      5361      5357      5360      5362
      5357      5360      5363      5358      5357      5359      5358      5357      5360
      5359      5357      5360      5360      5363      5364      5360      5363      5365
      5360      5363      5366      5361      5360      5362      5361      5360      5363
      5362      5360      5363      5363      5366      5367      5363      5366      5368
      5363      5366      5369      5364      5363      5365      5364      5363      5366
      5365      5363      5366      5366      5369      5370      5366      5369      5371
      5366      5369      5372      5367      5366      5368      5367      5366      5369
      5368      5366      5369      5369      5372      5373      5369      5372      5374
      5369      5372      5375      5370      5369      5371      5370      5369      5372
      5371      5369      5372      5372      5375      5376      5372      5375      5377
      5372      5375      5378      5373      5372      5374      5373      5372      5375
      5374      5372      5375      5375      5378      5379      5375      5378      5380
      5375      5378      5381      5376      5375      5377      5376      5375      5378
      5377      5375      5378      5378      5381      5382      5378      5381      5383
      5378      5381      5384      5379      5378      5380      5379      5378      5381
      5380      5378      5381      5382      5381      5383      5382      5381      5384
      5383      5381      5384      5385      5387      5388      5385      5389      5390
      5385      5389      5391      5385      5389      5392      5385      5431      5428
      5385      5431      5432      5385      5431      5433      5386      5385      5387
      5386      5385      5389      5386      5385      5431      5387      5385      5389
      5387      5385      5431      5389      5385      5431      5389      5392      5393
      5389      5392      5423      5390      5389      5391      5390      5389      5392
      5391      5389      5392      5392      5393      5394      5392      5393      5395
      5392      5423      5421      5392      5423      5424      5392      5423      5428
      5393      5392      5423      5393      5395      5396      5393      5395      5397
      5393      5395      5398      5394      5393      5395      5395      5398      5399
      5395      5398      5400      5395      5398      5421      5396      5395      5397
      5396      5395      5398      5397      5395      5398      5398      5400      5401
      5398      5400      5402      5398      5400      5410      5398      5421      5418
      5398      5421      5422      5398      5421      5423      5399      5398      5400
      5399      5398      5421      5400      5398      5421      5400      5402      5403
      5400      5402      5404      5400      5402      5405      5400      5410      5408
      5400      5410      5411      5400      5410      5415      5401      5400      5402
      5401      5400      5410      5402      5400      5410      5402      5405      5406
      5402      5405      5407      5402      5405      5408      5403      5402      5404
      5403      5402      5405      5404      5402      5405      5405      5408      5409
      5405      5408      5410      5405      5408      5434      5406      5405      5407
      5406      5405      5408      5407      5405      5408      5408      5410      5411
      5408      5410      5415      5408      5434      5435      5408      5434      5436
      5408      5434      5440      5409      5408      5410      5409      5408      5434
      5410      5408      5434      5410      5411      5412      5410      5411      5413
      5410      5411      5414      5410      5415      5416      5410      5415      5417
      5410      5415      5418      5411      5410      5415      5412      5411      5413
      5412      5411      5414      5413      5411      5414      5415      5418      5419
      5415      5418      5420      5415      5418      5421      5416      5415      5417
      5416      5415      5418      5417      5415      5418      5418      5421      5422
      5418      5421      5423      5419      5418      5420      5419      5418      5421
      5420      5418      5421      5421      5423      5424      5421      5423      5428
      5422      5421      5423      5423      5424      5425      5423      5424      5426
      5423      5424      5427      5423      5428      5429      5423      5428      5430
      5423      5428      5431      5424      5423      5428      5425      5424      5426
      5425      5424      5427      5426      5424      5427      5428      5431      5432
      5428      5431      5433      5429      5428      5430      5429      5428      5431
      5430      5428      5431      5432      5431      5433      5434      5436      5437
      5434      5436      5438      5434      5436      5439      5434      5440      5441
      5434      5440      5442      5434      5440      5443      5435      5434      5436
      5435      5434      5440      5436      5434      5440      5437      5436      5438
      5437      5436      5439      5438      5436      5439      5440      5443      5444
      5440      5443      5445      5440      5443      5446      5441      5440      5442
      5441      5440      5443      5442      5440      5443      5443      5446      5447
      5443      5446      5448      5443      5446      5449      5444      5443      5445
      5444      5443      5446      5445      5443      5446      5446      5449      5450
      5446      5449      5451      5446      5449      5455      5447      5446      5448
      5447      5446      5449      5448      5446      5449      5449      5451      5452
      5449      5451      5453      5449      5451      5454      5449      5455      5456
      5449      5455      5457      5449      5455      5458      5450      5449      5451
      5450      5449      5455      5451      5449      5455      5452      5451      5453
      5452      5451      5454      5453      5451      5454      5456      5455      5457
      5456      5455      5458      5457      5455      5458      5459      5463      5464
      5459      5463      5465      5459      5463      5468      5460      5459      5461
      5460      5459      5462      5460      5459      5463      5461      5459      5462
      5461      5459      5463      5462      5459      5463      5463      5465      5466
      5463      5465      5467      5463      5468      5469      5463      5468      5470
      5463      5468      5474      5464      5463      5465      5464      5463      5468
      5465      5463      5468      5466      5465      5467      5468      5474      5471
      5469      5468      5470      5469      5468      5474      5470      5468      5474
      5471      5475      5476      5472      5471      5473      5472      5471      5474
      5472      5471      5475      5473      5471      5474      5473      5471      5475
      5474      5471      5475      5475      5476      5477      5475      5476      5478
      5475      5476      5479      5476      5479      5480      5476      5479      5481
      5476      5479      5487      5477      5476      5478      5477      5476      5479
      5478      5476      5479      5479      5481      5482      5479      5487      5488
      5479      5487      5489      5479      5487      5490      5480      5479      5481
      5480      5479      5487      5481      5479      5487      5481      5482      5483
      5481      5482      5484      5482      5484      5485      5482      5484      5486
      5482      5484      5496      5483      5482      5484      5484      5496      5497
      5484      5496      5498      5484      5496      5499      5485      5484      5486
      5485      5484      5496      5486      5484      5496      5487      5490      5491
      5488      5487      5489      5488      5487      5490      5489      5487      5490
      5490      5491      5492      5490      5491      5493      5491      5493      5494
      5491      5493      5495      5491      5493      5543      5492      5491      5493
      5493      5543      5544      5493      5543      5545      5493      5543      5546
      5494      5493      5495      5494      5493      5543      5495      5493      5543
      5496      5499      5500      5496      5499      5501      5496      5499      5502
      5497      5496      5498      5497      5496      5499      5498      5496      5499
      5499      5502      5503      5499      5502      5504      5500      5499      5501
      5500      5499      5502      5501      5499      5502      5502      5504      5505
      5502      5504      5506      5503      5502      5504      5504      5506      5507
      5504      5506      5508      5504      5506      5509      5505      5504      5506
      5506      5509      5510      5506      5509      5511      5507      5506      5508
      5507      5506      5509      5508      5506      5509      5509      5511      5512
      5509      5511      5513      5510      5509      5511      5511      5513      5514
      5511      5513      5515      5511      5513      5516      5512      5511      5513
      5513      5516      5517      5513      5516      5518      5514      5513      5515
      5514      5513      5516      5515      5513      5516      5516      5518      5519
      5516      5518      5520      5517      5516      5518      5518      5520      5521
      5518      5520      5522      5518      5520      5523      5519      5518      5520
      5520      5523      5524      5520      5523      5525      5521      5520      5522
      5521      5520      5523      5522      5520      5523      5523      5525      5526
      5523      5525      5527      5524      5523      5525      5525      5527      5528
      5525      5527      5529      5525      5527      5530      5526      5525      5527
      5527      5530      5531      5527      5530      5532      5527      5530      5533
      5528      5527      5529      5528      5527      5530      5529      5527      5530
      5530      5533      5534      5530      5533      5535      5530      5533      5536
      5531      5530      5532      5531      5530      5533      5532      5530      5533
      5533      5536      5537      5533      5536      5538      5533      5536      5539
      5534      5533      5535      5534      5533      5536      5535      5533      5536
      5536      5539      5540      5536      5539      5541      5536      5539      5542
      5537      5536      5538      5537      5536      5539      5538      5536      5539
      5540      5539      5541      5540      5539      5542      5541      5539      5542
      5543      5546      5547      5543      5546      5548      5543      5546      5549
      5544      5543      5545      5544      5543      5546      5545      5543      5546
      5546      5549      5550      5546      5549      5551      5546      5549      5552
      5547      5546      5548      5547      5546      5549      5548      5546      5549
      5549      5552      5553      5549      5552      5554      5549      5552      5555
      5550      5549      5551      5550      5549      5552      5551      5549      5552
      5552      5555      5556      5552      5555      5557      5552      5555      5558
      5553      5552      5554      5553      5552      5555      5554      5552      5555
      5555      5558      5559      5555      5558      5560      5555      5558      5561
      5556      5555      5557      5556      5555      5558      5557      5555      5558
      5558      5561      5562      5558      5561      5563      5558      5561      5564
      5559      5558      5560      5559      5558      5561      5560      5558      5561
      5561      5564      5565      5561      5564      5566      5561      5564      5567
      5562      5561      5563      5562      5561      5564      5563      5561      5564
      5564      5567      5568      5564      5567      5569      5564      5567      5570
      5565      5564      5566      5565      5564      5567      5566      5564      5567
      5567      5570      5571      5567      5570      5572      5567      5570      5573
      5568      5567      5569      5568      5567      5570      5569      5567      5570
      5570      5573      5574      5570      5573      5575      5570      5573      5576
      5571      5570      5572      5571      5570      5573      5572      5570      5573
      5573      5576      5577      5573      5576      5578      5573      5576      5579
      5574      5573      5575      5574      5573      5576      5575      5573      5576
      5576      5579      5580      5576      5579      5581      5576      5579      5582
      5577      5576      5578      5577      5576      5579      5578      5576      5579
      5579      5582      5583      5579      5582      5584      5579      5582      5585
      5580      5579      5581      5580      5579      5582      5581      5579      5582
      5582      5585      5586      5582      5585      5587      5582      5585      5588
      5583      5582      5584      5583      5582      5585      5584      5582      5585
      5585      5588      5589      5585      5588      5590      5585      5588      5591
      5586      5585      5587      5586      5585      5588      5587      5585      5588
      5589      5588      5590      5589      5588      5591      5590      5588      5591
      5592      5593      5594      5592      5593      5595      5592      5593      5608
      5592      5596      5597      5592      5596      5598      5592      5596      5599
      5592      5600      5601      5592      5600      5602      5592      5600      5603
      5592      5604      5605      5592      5604      5606      5592      5604      5607
      5593      5592      5596      5593      5592      5600      5593      5592      5604
      5593      5608      5609      5593      5608      5610      5593      5608      5614
      5594      5593      5595      5594      5593      5608      5595      5593      5608
      5596      5592      5600      5596      5592      5604      5597      5596      5598
      5597      5596      5599      5598      5596      5599      5600      5592      5604
      5601      5600      5602      5601      5600      5603      5602      5600      5603
      5605      5604      5606      5605      5604      5607      5606      5604      5607
      5608      5614      5611      5609      5608      5610      5609      5608      5614
      5610      5608      5614      5611      5615      5616      5612      5611      5613
      5612      5611      5614      5612      5611      5615      5613      5611      5614
      5613      5611      5615      5614      5611      5615      5615      5616      5617
      5615      5616      5618      5615      5616      5619      5616      5619      5620
      5616      5619      5621      5616      5619      5627      5617      5616      5618
      5617      5616      5619      5618      5616      5619      5619      5621      5622
      5619      5627      5628      5619      5627      5629      5619      5627      5630
      5620      5619      5621      5620      5619      5627      5621      5619      5627
      5621      5622      5623      5621      5622      5624      5622      5624      5625
      5622      5624      5626      5622      5624      5636      5623      5622      5624
      5624      5636      5637      5624      5636      5638      5624      5636      5639
      5625      5624      5626      5625      5624      5636      5626      5624      5636
      5627      5630      5631      5628      5627      5629      5628      5627      5630
      5629      5627      5630      5630      5631      5632      5630      5631      5633
      5631      5633      5634      5631      5633      5635      5631      5633      5683
      5632      5631      5633      5633      5683      5684      5633      5683      5685
      5633      5683      5686      5634      5633      5635      5634      5633      5683
      5635      5633      5683      5636      5639      5640      5636      5639      5641
      5636      5639      5642      5637      5636      5638      5637      5636      5639
      5638      5636      5639      5639      5642      5643      5639      5642      5644
      5639      5642      5645      5640      5639      5641      5640      5639      5642
      5641      5639      5642      5642      5645      5646      5642      5645      5647
      5642      5645      5648      5643      5642      5644      5643      5642      5645
      5644      5642      5645      5645      5648      5649      5645      5648      5650
      5645      5648      5651      5646      5645      5647      5646      5645      5648
      5647      5645      5648      5648      5651      5652      5648      5651      5653
      5648      5651      5654      5649      5648      5650      5649      5648      5651
      5650      5648      5651      5651      5654      5655      5651      5654      5656
      5652      5651      5653      5652      5651      5654      5653      5651      5654
      5654      5656      5657      5654      5656      5658      5655      5654      5656
      5656      5658      5659      5656      5658      5660      5656      5658      5661
      5657      5656      5658      5658      5661      5662      5658      5661      5663
      5658      5661      5664      5659      5658      5660      5659      5658      5661
      5660      5658      5661      5661      5664      5665      5661      5664      5666
      5661      5664      5667      5662      5661      5663      5662      5661      5664
      5663      5661      5664      5664      5667      5668      5664      5667      5669
      5664      5667      5670      5665      5664      5666      5665      5664      5667
      5666      5664      5667      5667      5670      5671      5667      5670      5672
      5667      5670      5673      5668      5667      5669      5668      5667      5670
      5669      5667      5670      5670      5673      5674      5670      5673      5675
      5670      5673      5676      5671      5670      5672      5671      5670      5673
      5672      5670      5673      5673      5676      5677      5673      5676      5678
      5673      5676      5679      5674      5673      5675      5674      5673      5676
      5675      5673      5676      5676      5679      5680      5676      5679      5681
      5676      5679      5682      5677      5676      5678      5677      5676      5679
      5678      5676      5679      5680      5679      5681      5680      5679      5682
      5681      5679      5682      5683      5686      5687      5683      5686      5688
      5683      5686      5689      5684      5683      5685      5684      5683      5686
      5685      5683      5686      5686      5689      5690      5686      5689      5691
      5686      5689      5692      5687      5686      5688      5687      5686      5689
      5688      5686      5689      5689      5692      5693      5689      5692      5694
      5689      5692      5695      5690      5689      5691      5690      5689      5692
      5691      5689      5692      5692      5695      5696      5692      5695      5697
      5692      5695      5698      5693      5692      5694      5693      5692      5695
      5694      5692      5695      5695      5698      5699      5695      5698      5700
      5695      5698      5701      5696      5695      5697      5696      5695      5698
      5697      5695      5698      5698      5701      5702      5698      5701      5703
      5698      5701      5704      5699      5698      5700      5699      5698      5701
      5700      5698      5701      5701      5704      5705      5701      5704      5706
      5701      5704      5707      5702      5701      5703      5702      5701      5704
      5703      5701      5704      5704      5707      5708      5704      5707      5709
      5704      5707      5710      5705      5704      5706      5705      5704      5707
      5706      5704      5707      5707      5710      5711      5707      5710      5712
      5707      5710      5713      5708      5707      5709      5708      5707      5710
      5709      5707      5710      5710      5713      5714      5710      5713      5715
      5710      5713      5716      5711      5710      5712      5711      5710      5713
      5712      5710      5713      5713      5716      5717      5713      5716      5718
      5713      5716      5719      5714      5713      5715      5714      5713      5716
      5715      5713      5716      5716      5719      5720      5716      5719      5721
      5716      5719      5722      5717      5716      5718      5717      5716      5719
      5718      5716      5719      5719      5722      5723      5719      5722      5724
      5719      5722      5725      5720      5719      5721      5720      5719      5722
      5721      5719      5722      5723      5722      5724      5723      5722      5725
      5724      5722      5725      5726      5730      5731      5726      5730      5732
      5726      5730      5735      5727      5726      5728      5727      5726      5729
      5727      5726      5730      5728      5726      5729      5728      5726      5730
      5729      5726      5730      5730      5732      5733      5730      5732      5734
      5730      5735      5736      5730      5735      5737      5730      5735      5741
      5731      5730      5732      5731      5730      5735      5732      5730      5735
      5733      5732      5734      5735      5741      5738      5736      5735      5737
      5736      5735      5741      5737      5735      5741      5738      5742      5743
      5739      5738      5740      5739      5738      5741      5739      5738      5742
      5740      5738      5741      5740      5738      5742      5741      5738      5742
      5742      5743      5744      5742      5743      5745      5742      5743      5746
      5743      5746      5747      5743      5746      5748      5743      5746      5754
      5744      5743      5745      5744      5743      5746      5745      5743      5746
      5746      5748      5749      5746      5754      5755      5746      5754      5756
      5746      5754      5757      5747      5746      5748      5747      5746      5754
      5748      5746      5754      5748      5749      5750      5748      5749      5751
      5749      5751      5752      5749      5751      5753      5749      5751      5763
      5750      5749      5751      5751      5763      5764      5751      5763      5765
      5751      5763      5766      5752      5751      5753      5752      5751      5763
      5753      5751      5763      5754      5757      5758      5755      5754      5756
      5755      5754      5757      5756      5754      5757      5757      5758      5759
      5757      5758      5760      5758      5760      5761      5758      5760      5762
      5758      5760      5810      5759      5758      5760      5760      5810      5811
      5760      5810      5812      5760      5810      5813      5761      5760      5762
      5761      5760      5810      5762      5760      5810      5763      5766      5767
      5763      5766      5768      5763      5766      5769      5764      5763      5765
      5764      5763      5766      5765      5763      5766      5766      5769      5770
      5766      5769      5771      5767      5766      5768      5767      5766      5769
      5768      5766      5769      5769      5771      5772      5769      5771      5773
      5770      5769      5771      5771      5773      5774      5771      5773      5775
      5771      5773      5776      5772      5771      5773      5773      5776      5777
      5773      5776      5778      5774      5773      5775      5774      5773      5776
      5775      5773      5776      5776      5778      5779      5776      5778      5780
      5777      5776      5778      5778      5780      5781      5778      5780      5782
      5778      5780      5783      5779      5778      5780      5780      5783      5784
      5780      5783      5785      5781      5780      5782      5781      5780      5783
      5782      5780      5783      5783      5785      5786      5783      5785      5787
      5784      5783      5785      5785      5787      5788      5785      5787      5789
      5785      5787      5790      5786      5785      5787      5787      5790      5791
      5787      5790      5792      5788      5787      5789      5788      5787      5790
      5789      5787      5790      5790      5792      5793      5790      5792      5794
      5791      5790      5792      5792      5794      5795      5792      5794      5796
      5792      5794      5797      5793      5792      5794      5794      5797      5798
      5794      5797      5799      5794      5797      5800      5795      5794      5796
      5795      5794      5797      5796      5794      5797      5797      5800      5801
      5797      5800      5802      5797      5800      5803      5798      5797      5799
      5798      5797      5800      5799      5797      5800      5800      5803      5804
      5800      5803      5805      5800      5803      5806      5801      5800      5802
      5801      5800      5803      5802      5800      5803      5803      5806      5807
      5803      5806      5808      5803      5806      5809      5804      5803      5805
      5804      5803      5806      5805      5803      5806      5807      5806      5808
      5807      5806      5809      5808      5806      5809      5810      5813      5814
      5810      5813      5815      5810      5813      5816      5811      5810      5812
      5811      5810      5813      5812      5810      5813      5813      5816      5817
      5813      5816      5818      5813      5816      5819      5814      5813      5815
      5814      5813      5816      5815      5813      5816      5816      5819      5820
      5816      5819      5821      5816      5819      5822      5817      5816      5818
      5817      5816      5819      5818      5816      5819      5819      5822      5823
      5819      5822      5824      5819      5822      5825      5820      5819      5821
      5820      5819      5822      5821      5819      5822      5822      5825      5826
      5822      5825      5827      5822      5825      5828      5823      5822      5824
      5823      5822      5825      5824      5822      5825      5825      5828      5829
      5825      5828      5830      5825      5828      5831      5826      5825      5827
      5826      5825      5828      5827      5825      5828      5828      5831      5832
      5828      5831      5833      5828      5831      5834      5829      5828      5830
      5829      5828      5831      5830      5828      5831      5831      5834      5835
      5831      5834      5836      5831      5834      5837      5832      5831      5833
      5832      5831      5834      5833      5831      5834      5834      5837      5838
      5834      5837      5839      5834      5837      5840      5835      5834      5836
      5835      5834      5837      5836      5834      5837      5837      5840      5841
      5837      5840      5842      5837      5840      5843      5838      5837      5839
      5838      5837      5840      5839      5837      5840      5840      5843      5844
      5840      5843      5845      5840      5843      5846      5841      5840      5842
      5841      5840      5843      5842      5840      5843      5843      5846      5847
      5843      5846      5848      5843      5846      5849      5844      5843      5845
      5844      5843      5846      5845      5843      5846      5846      5849      5850
      5846      5849      5851      5846      5849      5852      5847      5846      5848
      5847      5846      5849      5848      5846      5849      5849      5852      5853
      5849      5852      5854      5849      5852      5855      5850      5849      5851
      5850      5849      5852      5851      5849      5852      5852      5855      5856
      5852      5855      5857      5852      5855      5858      5853      5852      5854
      5853      5852      5855      5854      5852      5855      5856      5855      5857
      5856      5855      5858      5857      5855      5858      5859      5860      5861
      5859      5860      5862      5859      5860      5863      5859      5864      5865
      5859      5864      5866      5859      5864      5867      5859      5868      5869
      5859      5868      5870      5859      5868      5871      5859      5872      5873
      5859      5872      5874      5859      5872      5875      5860      5859      5864
      5860      5859      5868      5860      5859      5872      5861      5860      5862
      5861      5860      5863      5862      5860      5863      5864      5859      5868
      5864      5859      5872      5865      5864      5866      5865      5864      5867
      5866      5864      5867      5868      5859      5872      5869      5868      5870
      5869      5868      5871      5870      5868      5871      5872      5875      5876
      5872      5875      5877      5872      5875      5882      5873      5872      5874
      5873      5872      5875      5874      5872      5875      5875      5882      5878
      5876      5875      5877      5876      5875      5882      5877      5875      5882
      5878      5881      5883      5879      5878      5880      5879      5878      5881
      5879      5878      5882      5880      5878      5881      5880      5878      5882
      5881      5878      5882      5881      5883      5884      5881      5883      5885
      5881      5883      5888      5883      5888      5886      5883      5888      5889
      5883      5888      5890      5884      5883      5885      5884      5883      5888
      5885      5883      5888      5886      5888      5889      5886      5888      5890
      5886      5938      5939      5886      5938      5940      5887      5886      5888
      5887      5886      5938      5888      5886      5938      5888      5890      5891
      5888      5890      5892      5888      5890      5894      5889      5888      5890
      5890      5892      5893      5890      5894      5895      5890      5894      5896
      5891      5890      5892      5891      5890      5894      5892      5890      5894
      5894      5896      5897      5894      5896      5898      5895      5894      5896
      5896      5898      5899      5896      5898      5900      5896      5898      5901
      5897      5896      5898      5898      5901      5902      5898      5901      5903
      5898      5901      5904      5899      5898      5900      5899      5898      5901
      5900      5898      5901      5901      5904      5905      5901      5904      5906
      5901      5904      5907      5902      5901      5903      5902      5901      5904
      5903      5901      5904      5904      5907      5908      5904      5907      5909
      5904      5907      5910      5905      5904      5906      5905      5904      5907
      5906      5904      5907      5907      5910      5911      5907      5910      5912
      5907      5910      5913      5908      5907      5909      5908      5907      5910
      5909      5907      5910      5910      5913      5914      5910      5913      5915
      5910      5913      5916      5911      5910      5912      5911      5910      5913
      5912      5910      5913      5913      5916      5917      5913      5916      5918
      5913      5916      5919      5914      5913      5915      5914      5913      5916
      5915      5913      5916      5916      5919      5920      5916      5919      5921
      5916      5919      5922      5917      5916      5918      5917      5916      5919
      5918      5916      5919      5919      5922      5923      5919      5922      5924
      5919      5922      5925      5920      5919      5921      5920      5919      5922
      5921      5919      5922      5922      5925      5926      5922      5925      5927
      5922      5925      5928      5923      5922      5924      5923      5922      5925
      5924      5922      5925      5925      5928      5929      5925      5928      5930
      5925      5928      5931      5926      5925      5927      5926      5925      5928
      5927      5925      5928      5928      5931      5932      5928      5931      5933
      5928      5931      5934      5929      5928      5930      5929      5928      5931
      5930      5928      5931      5931      5934      5935      5931      5934      5936
      5931      5934      5937      5932      5931      5933      5932      5931      5934
      5933      5931      5934      5935      5934      5936      5935      5934      5937
      5936      5934      5937      5938      5940      5941      5938      5940      5942
      5938      5940      5943      5939      5938      5940      5940      5943      5944
      5940      5943      5945      5940      5943      5946      5941      5940      5942
      5941      5940      5943      5942      5940      5943      5943      5946      5947
      5943      5946      5948      5943      5946      5949      5944      5943      5945
      5944      5943      5946      5945      5943      5946      5946      5949      5950
      5946      5949      5951      5946      5949      5952      5947      5946      5948
      5947      5946      5949      5948      5946      5949      5949      5952      5953
      5949      5952      5954      5949      5952      5955      5950      5949      5951
      5950      5949      5952      5951      5949      5952      5952      5955      5956
      5952      5955      5957      5952      5955      5958      5953      5952      5954
      5953      5952      5955      5954      5952      5955      5955      5958      5959
      5955      5958      5960      5955      5958      5961      5956      5955      5957
      5956      5955      5958      5957      5955      5958      5958      5961      5962
      5958      5961      5963      5959      5958      5960      5959      5958      5961
      5960      5958      5961      5961      5963      5964      5961      5963      5965
      5962      5961      5963      5963      5965      5966      5963      5965      5967
      5963      5965      5968      5964      5963      5965      5965      5968      5969
      5965      5968      5970      5965      5968      5971      5966      5965      5967
      5966      5965      5968      5967      5965      5968      5968      5971      5972
      5968      5971      5973      5968      5971      5974      5969      5968      5970
      5969      5968      5971      5970      5968      5971      5971      5974      5975
      5971      5974      5976      5971      5974      5977      5972      5971      5973
      5972      5971      5974      5973      5971      5974      5974      5977      5978
      5974      5977      5979      5974      5977      5980      5975      5974      5976
      5975      5974      5977      5976      5974      5977      5977      5980      5981
      5977      5980      5982      5977      5980      5983      5978      5977      5979
      5978      5977      5980      5979      5977      5980      5980      5983      5984
      5980      5983      5985      5980      5983      5986      5981      5980      5982
      5981      5980      5983      5982      5980      5983      5983      5986      5987
      5983      5986      5988      5983      5986      5989      5984      5983      5985
      5984      5983      5986      5985      5983      5986      5987      5986      5988
      5987      5986      5989      5988      5986      5989      5990      5992      5993
      5990      5994      5995      5990      5994      5996      5990      5994      5997
      5990      6036      6033      5990      6036      6037      5990      6036      6038
      5991      5990      5992      5991      5990      5994      5991      5990      6036
      5992      5990      5994      5992      5990      6036      5994      5990      6036
      5994      5997      5998      5994      5997      6028      5995      5994      5996
      5995      5994      5997      5996      5994      5997      5997      5998      5999
      5997      5998      6000      5997      6028      6026      5997      6028      6029
      5997      6028      6033      5998      5997      6028      5998      6000      6001
      5998      6000      6002      5998      6000      6003      5999      5998      6000
      6000      6003      6004      6000      6003      6005      6000      6003      6026
      6001      6000      6002      6001      6000      6003      6002      6000      6003
      6003      6005      6006      6003      6005      6007      6003      6005      6015
      6003      6026      6023      6003      6026      6027      6003      6026      6028
      6004      6003      6005      6004      6003      6026      6005      6003      6026
      6005      6007      6008      6005      6007      6009      6005      6007      6010
      6005      6015      6013      6005      6015      6016      6005      6015      6020
      6006      6005      6007      6006      6005      6015      6007      6005      6015
      6007      6010      6011      6007      6010      6012      6007      6010      6013
      6008      6007      6009      6008      6007      6010      6009      6007      6010
      6010      6013      6014      6010      6013      6015      6010      6013      6039
      6011      6010      6012      6011      6010      6013      6012      6010      6013
      6013      6015      6016      6013      6015      6020      6013      6039      6040
      6013      6039      6041      6013      6039      6045      6014      6013      6015
      6014      6013      6039      6015      6013      6039      6015      6016      6017
      6015      6016      6018      6015      6016      6019      6015      6020      6021
      6015      6020      6022      6015      6020      6023      6016      6015      6020
      6017      6016      6018      6017      6016      6019      6018      6016      6019
      6020      6023      6024      6020      6023      6025      6020      6023      6026
      6021      6020      6022      6021      6020      6023      6022      6020      6023
      6023      6026      6027      6023      6026      6028      6024      6023      6025
      6024      6023      6026      6025      6023      6026      6026      6028      6029
      6026      6028      6033      6027      6026      6028      6028      6029      6030
      6028      6029      6031      6028      6029      6032      6028      6033      6034
      6028      6033      6035      6028      6033      6036      6029      6028      6033
      6030      6029      6031      6030      6029      6032      6031      6029      6032
      6033      6036      6037      6033      6036      6038      6034      6033      6035
      6034      6033      6036      6035      6033      6036      6037      6036      6038
      6039      6041      6042      6039      6041      6043      6039      6041      6044
      6039      6045      6046      6039      6045      6047      6039      6045      6048
      6040      6039      6041      6040      6039      6045      6041      6039      6045
      6042      6041      6043      6042      6041      6044      6043      6041      6044
      6045      6048      6049      6045      6048      6050      6045      6048      6051
      6046      6045      6047      6046      6045      6048      6047      6045      6048
      6048      6051      6052      6048      6051      6053      6048      6051      6054
      6049      6048      6050      6049      6048      6051      6050      6048      6051
      6051      6054      6055      6051      6054      6056      6051      6054      6060
      6052      6051      6053      6052      6051      6054      6053      6051      6054
      6054      6056      6057      6054      6056      6058      6054      6056      6059
      6054      6060      6061      6054      6060      6062      6054      6060      6063
      6055      6054      6056      6055      6054      6060      6056      6054      6060
      6057      6056      6058      6057      6056      6059      6058      6056      6059
      6061      6060      6062      6061      6060      6063      6062      6060      6063
      6064      6066      6067      6064      6068      6069      6064      6068      6070
      6064      6068      6071      6064      6110      6107      6064      6110      6111
      6064      6110      6112      6065      6064      6066      6065      6064      6068
      6065      6064      6110      6066      6064      6068      6066      6064      6110
      6068      6064      6110      6068      6071      6072      6068      6071      6102
      6069      6068      6070      6069      6068      6071      6070      6068      6071
      6071      6072      6073      6071      6072      6074      6071      6102      6100
      6071      6102      6103      6071      6102      6107      6072      6071      6102
      6072      6074      6075      6072      6074      6076      6072      6074      6077
      6073      6072      6074      6074      6077      6078      6074      6077      6079
      6074      6077      6100      6075      6074      6076      6075      6074      6077
      6076      6074      6077      6077      6079      6080      6077      6079      6081
      6077      6079      6089      6077      6100      6097      6077      6100      6101
      6077      6100      6102      6078      6077      6079      6078      6077      6100
      6079      6077      6100      6079      6081      6082      6079      6081      6083
      6079      6081      6084      6079      6089      6087      6079      6089      6090
      6079      6089      6094      6080      6079      6081      6080      6079      6089
      6081      6079      6089      6081      6084      6085      6081      6084      6086
      6081      6084      6087      6082      6081      6083      6082      6081      6084
      6083      6081      6084      6084      6087      6088      6084      6087      6089
      6084      6087      6113      6085      6084      6086      6085      6084      6087
      6086      6084      6087      6087      6089      6090      6087      6089      6094
      6087      6113      6114      6087      6113      6115      6087      6113      6119
      6088      6087      6089      6088      6087      6113      6089      6087      6113
      6089      6090      6091      6089      6090      6092      6089      6090      6093
      6089      6094      6095      6089      6094      6096      6089      6094      6097
      6090      6089      6094      6091      6090      6092      6091      6090      6093
      6092      6090      6093      6094      6097      6098      6094      6097      6099
      6094      6097      6100      6095      6094      6096      6095      6094      6097
      6096      6094      6097      6097      6100      6101      6097      6100      6102
      6098      6097      6099      6098      6097      6100      6099      6097      6100
      6100      6102      6103      6100      6102      6107      6101      6100      6102
      6102      6103      6104      6102      6103      6105      6102      6103      6106
      6102      6107      6108      6102      6107      6109      6102      6107      6110
      6103      6102      6107      6104      6103      6105      6104      6103      6106
      6105      6103      6106      6107      6110      6111      6107      6110      6112
      6108      6107      6109      6108      6107      6110      6109      6107      6110
      6111      6110      6112      6113      6115      6116      6113      6115      6117
      6113      6115      6118      6113      6119      6120      6113      6119      6121
      6113      6119      6122      6114      6113      6115      6114      6113      6119
      6115      6113      6119      6116      6115      6117      6116      6115      6118
      6117      6115      6118      6119      6122      6123      6119      6122      6124
      6119      6122      6125      6120      6119      6121      6120      6119      6122
      6121      6119      6122      6122      6125      6126      6122      6125      6127
      6122      6125      6128      6123      6122      6124      6123      6122      6125
      6124      6122      6125      6125      6128      6129      6125      6128      6130
      6125      6128      6134      6126      6125      6127      6126      6125      6128
      6127      6125      6128      6128      6130      6131      6128      6130      6132
      6128      6130      6133      6128      6134      6135      6128      6134      6136
      6128      6134      6137      6129      6128      6130      6129      6128      6134
      6130      6128      6134      6131      6130      6132      6131      6130      6133
      6132      6130      6133      6135      6134      6136      6135      6134      6137
      6136      6134      6137      6138      6140      6141      6138      6142      6143
      6138      6142      6144      6138      6142      6145      6138      6184      6181
      6138      6184      6185      6138      6184      6186      6139      6138      6140
      6139      6138      6142      6139      6138      6184      6140      6138      6142
      6140      6138      6184      6142      6138      6184      6142      6145      6146
      6142      6145      6176      6143      6142      6144      6143      6142      6145
      6144      6142      6145      6145      6146      6147      6145      6146      6148
      6145      6176      6174      6145      6176      6177      6145      6176      6181
      6146      6145      6176      6146      6148      6149      6146      6148      6150
      6146      6148      6151      6147      6146      6148      6148      6151      6152
      6148      6151      6153      6148      6151      6174      6149      6148      6150
      6149      6148      6151      6150      6148      6151      6151      6153      6154
      6151      6153      6155      6151      6153      6163      6151      6174      6171
      6151      6174      6175      6151      6174      6176      6152      6151      6153
      6152      6151      6174      6153      6151      6174      6153      6155      6156
      6153      6155      6157      6153      6155      6158      6153      6163      6161
      6153      6163      6164      6153      6163      6168      6154      6153      6155
      6154      6153      6163      6155      6153      6163      6155      6158      6159
      6155      6158      6160      6155      6158      6161      6156      6155      6157
      6156      6155      6158      6157      6155      6158      6158      6161      6162
      6158      6161      6163      6158      6161      6187      6159      6158      6160
      6159      6158      6161      6160      6158      6161      6161      6163      6164
      6161      6163      6168      6161      6187      6188      6161      6187      6189
      6161      6187      6193      6162      6161      6163      6162      6161      6187
      6163      6161      6187      6163      6164      6165      6163      6164      6166
      6163      6164      6167      6163      6168      6169      6163      6168      6170
      6163      6168      6171      6164      6163      6168      6165      6164      6166
      6165      6164      6167      6166      6164      6167      6168      6171      6172
      6168      6171      6173      6168      6171      6174      6169      6168      6170
      6169      6168      6171      6170      6168      6171      6171      6174      6175
      6171      6174      6176      6172      6171      6173      6172      6171      6174
      6173      6171      6174      6174      6176      6177      6174      6176      6181
      6175      6174      6176      6176      6177      6178      6176      6177      6179
      6176      6177      6180      6176      6181      6182      6176      6181      6183
      6176      6181      6184      6177      6176      6181      6178      6177      6179
      6178      6177      6180      6179      6177      6180      6181      6184      6185
      6181      6184      6186      6182      6181      6183      6182      6181      6184
      6183      6181      6184      6185      6184      6186      6187      6189      6190
      6187      6189      6191      6187      6189      6192      6187      6193      6194
      6187      6193      6195      6187      6193      6196      6188      6187      6189
      6188      6187      6193      6189      6187      6193      6190      6189      6191
      6190      6189      6192      6191      6189      6192      6193      6196      6197
      6193      6196      6198      6193      6196      6199      6194      6193      6195
      6194      6193      6196      6195      6193      6196      6196      6199      6200
      6196      6199      6201      6196      6199      6202      6197      6196      6198
      6197      6196      6199      6198      6196      6199      6199      6202      6203
      6199      6202      6204      6199      6202      6208      6200      6199      6201
      6200      6199      6202      6201      6199      6202      6202      6204      6205
      6202      6204      6206      6202      6204      6207      6202      6208      6209
      6202      6208      6210      6202      6208      6211      6203      6202      6204
      6203      6202      6208      6204      6202      6208      6205      6204      6206
      6205      6204      6207      6206      6204      6207      6209      6208      6210
      6209      6208      6211      6210      6208      6211      6212      6213      6214
      6212      6213      6215      6212      6213      6228      6212      6216      6217
      6212      6216      6218      6212      6216      6219      6212      6220      6221
      6212      6220      6222      6212      6220      6223      6212      6224      6225
      6212      6224      6226      6212      6224      6227      6213      6212      6216
      6213      6212      6220      6213      6212      6224      6213      6228      6229
      6213      6228      6230      6213      6228      6234      6214      6213      6215
      6214      6213      6228      6215      6213      6228      6216      6212      6220
      6216      6212      6224      6217      6216      6218      6217      6216      6219
      6218      6216      6219      6220      6212      6224      6221      6220      6222
      6221      6220      6223      6222      6220      6223      6225      6224      6226
      6225      6224      6227      6226      6224      6227      6228      6234      6231
      6229      6228      6230      6229      6228      6234      6230      6228      6234
      6231      6235      6236      6232      6231      6233      6232      6231      6234
      6232      6231      6235      6233      6231      6234      6233      6231      6235
      6234      6231      6235      6235      6236      6237      6235      6236      6238
      6235      6236      6239      6236      6239      6240      6236      6239      6241
      6236      6239      6247      6237      6236      6238      6237      6236      6239
      6238      6236      6239      6239      6241      6242      6239      6247      6248
      6239      6247      6249      6239      6247      6250      6240      6239      6241
      6240      6239      6247      6241      6239      6247      6241      6242      6243
      6241      6242      6244      6242      6244      6245      6242      6244      6246
      6242      6244      6256      6243      6242      6244      6244      6256      6257
      6244      6256      6258      6244      6256      6259      6245      6244      6246
      6245      6244      6256      6246      6244      6256      6247      6250      6251
      6248      6247      6249      6248      6247      6250      6249      6247      6250
      6250      6251      6252      6250      6251      6253      6251      6253      6254
      6251      6253      6255      6251      6253      6303      6252      6251      6253
      6253      6303      6304      6253      6303      6305      6253      6303      6306
      6254      6253      6255      6254      6253      6303      6255      6253      6303
      6256      6259      6260      6256      6259      6261      6256      6259      6262
      6257      6256      6258      6257      6256      6259      6258      6256      6259
      6259      6262      6263      6259      6262      6264      6259      6262      6265
      6260      6259      6261      6260      6259      6262      6261      6259      6262
      6262      6265      6266      6262      6265      6267      6262      6265      6268
      6263      6262      6264      6263      6262      6265      6264      6262      6265
      6265      6268      6269      6265      6268      6270      6265      6268      6271
      6266      6265      6267      6266      6265      6268      6267      6265      6268
      6268      6271      6272      6268      6271      6273      6268      6271      6274
      6269      6268      6270      6269      6268      6271      6270      6268      6271
      6271      6274      6275      6271      6274      6276      6272      6271      6273
      6272      6271      6274      6273      6271      6274      6274      6276      6277
      6274      6276      6278      6275      6274      6276      6276      6278      6279
      6276      6278      6280      6276      6278      6281      6277      6276      6278
      6278      6281      6282      6278      6281      6283      6278      6281      6284
      6279      6278      6280      6279      6278      6281      6280      6278      6281
      6281      6284      6285      6281      6284      6286      6281      6284      6287
      6282      6281      6283      6282      6281      6284      6283      6281      6284
      6284      6287      6288      6284      6287      6289      6284      6287      6290
      6285      6284      6286      6285      6284      6287      6286      6284      6287
      6287      6290      6291      6287      6290      6292      6287      6290      6293
      6288      6287      6289      6288      6287      6290      6289      6287      6290
      6290      6293      6294      6290      6293      6295      6290      6293      6296
      6291      6290      6292      6291      6290      6293      6292      6290      6293
      6293      6296      6297      6293      6296      6298      6293      6296      6299
      6294      6293      6295      6294      6293      6296      6295      6293      6296
      6296      6299      6300      6296      6299      6301      6296      6299      6302
      6297      6296      6298      6297      6296      6299      6298      6296      6299
      6300      6299      6301      6300      6299      6302      6301      6299      6302
      6303      6306      6307      6303      6306      6308      6303      6306      6309
      6304      6303      6305      6304      6303      6306      6305      6303      6306
      6306      6309      6310      6306      6309      6311      6306      6309      6312
      6307      6306      6308      6307      6306      6309      6308      6306      6309
      6309      6312      6313      6309      6312      6314      6309      6312      6315
      6310      6309      6311      6310      6309      6312      6311      6309      6312
      6312      6315      6316      6312      6315      6317      6312      6315      6318
      6313      6312      6314      6313      6312      6315      6314      6312      6315
      6315      6318      6319      6315      6318      6320      6315      6318      6321
      6316      6315      6317      6316      6315      6318      6317      6315      6318
      6318      6321      6322      6318      6321      6323      6318      6321      6324
      6319      6318      6320      6319      6318      6321      6320      6318      6321
      6321      6324      6325      6321      6324      6326      6321      6324      6327
      6322      6321      6323      6322      6321      6324      6323      6321      6324
      6324      6327      6328      6324      6327      6329      6324      6327      6330
      6325      6324      6326      6325      6324      6327      6326      6324      6327
      6327      6330      6331      6327      6330      6332      6327      6330      6333
      6328      6327      6329      6328      6327      6330      6329      6327      6330
      6330      6333      6334      6330      6333      6335      6330      6333      6336
      6331      6330      6332      6331      6330      6333      6332      6330      6333
      6333      6336      6337      6333      6336      6338      6333      6336      6339
      6334      6333      6335      6334      6333      6336      6335      6333      6336
      6336      6339      6340      6336      6339      6341      6336      6339      6342
      6337      6336      6338      6337      6336      6339      6338      6336      6339
      6339      6342      6343      6339      6342      6344      6339      6342      6345
      6340      6339      6341      6340      6339      6342      6341      6339      6342
      6343      6342      6344      6343      6342      6345      6344      6342      6345
      6346      6348      6349      6346      6350      6351      6346      6350      6352
      6346      6350      6353      6346      6392      6389      6346      6392      6393
      6346      6392      6394      6347      6346      6348      6347      6346      6350
      6347      6346      6392      6348      6346      6350      6348      6346      6392
      6350      6346      6392      6350      6353      6354      6350      6353      6384
      6351      6350      6352      6351      6350      6353      6352      6350      6353
      6353      6354      6355      6353      6354      6356      6353      6384      6382
      6353      6384      6385      6353      6384      6389      6354      6353      6384
      6354      6356      6357      6354      6356      6358      6354      6356      6359
      6355      6354      6356      6356      6359      6360      6356      6359      6361
      6356      6359      6382      6357      6356      6358      6357      6356      6359
      6358      6356      6359      6359      6361      6362      6359      6361      6363
      6359      6361      6371      6359      6382      6379      6359      6382      6383
      6359      6382      6384      6360      6359      6361      6360      6359      6382
      6361      6359      6382      6361      6363      6364      6361      6363      6365
      6361      6363      6366      6361      6371      6369      6361      6371      6372
      6361      6371      6376      6362      6361      6363      6362      6361      6371
      6363      6361      6371      6363      6366      6367      6363      6366      6368
      6363      6366      6369      6364      6363      6365      6364      6363      6366
      6365      6363      6366      6366      6369      6370      6366      6369      6371
      6366      6369      6395      6367      6366      6368      6367      6366      6369
      6368      6366      6369      6369      6371      6372      6369      6371      6376
      6369      6395      6396      6369      6395      6397      6369      6395      6401
      6370      6369      6371      6370      6369      6395      6371      6369      6395
      6371      6372      6373      6371      6372      6374      6371      6372      6375
      6371      6376      6377      6371      6376      6378      6371      6376      6379
      6372      6371      6376      6373      6372      6374      6373      6372      6375
      6374      6372      6375      6376      6379      6380      6376      6379      6381
      6376      6379      6382      6377      6376      6378      6377      6376      6379
      6378      6376      6379      6379      6382      6383      6379      6382      6384
      6380      6379      6381      6380      6379      6382      6381      6379      6382
      6382      6384      6385      6382      6384      6389      6383      6382      6384
      6384      6385      6386      6384      6385      6387      6384      6385      6388
      6384      6389      6390      6384      6389      6391      6384      6389      6392
      6385      6384      6389      6386      6385      6387      6386      6385      6388
      6387      6385      6388      6389      6392      6393      6389      6392      6394
      6390      6389      6391      6390      6389      6392      6391      6389      6392
      6393      6392      6394      6395      6397      6398      6395      6397      6399
      6395      6397      6400      6395      6401      6402      6395      6401      6403
      6395      6401      6404      6396      6395      6397      6396      6395      6401
      6397      6395      6401      6398      6397      6399      6398      6397      6400
      6399      6397      6400      6401      6404      6405      6401      6404      6406
      6401      6404      6407      6402      6401      6403      6402      6401      6404
      6403      6401      6404      6404      6407      6408      6404      6407      6409
      6404      6407      6410      6405      6404      6406      6405      6404      6407
      6406      6404      6407      6407      6410      6411      6407      6410      6412
      6407      6410      6416      6408      6407      6409      6408      6407      6410
      6409      6407      6410      6410      6412      6413      6410      6412      6414
      6410      6412      6415      6410      6416      6417      6410      6416      6418
      6410      6416      6419      6411      6410      6412      6411      6410      6416
      6412      6410      6416      6413      6412      6414      6413      6412      6415
      6414      6412      6415      6417      6416      6418      6417      6416      6419
      6418      6416      6419      6420      6421      6422      6420      6421      6423
      6420      6421      6424      6420      6425      6426      6420      6425      6427
      6420      6425      6428      6420      6429      6430      6420      6429      6431
      6420      6429      6432      6420      6433      6434      6420      6433      6435
      6420      6433      6436      6421      6420      6425      6421      6420      6429
      6421      6420      6433      6422      6421      6423      6422      6421      6424
      6423      6421      6424      6425      6420      6429      6425      6420      6433
      6426      6425      6427      6426      6425      6428      6427      6425      6428
      6429      6420      6433      6430      6429      6431      6430      6429      6432
      6431      6429      6432      6433      6436      6437      6433      6436      6438
      6433      6436      6443      6434      6433      6435      6434      6433      6436
      6435      6433      6436      6436      6443      6439      6437      6436      6438
      6437      6436      6443      6438      6436      6443      6439      6442      6444
      6440      6439      6441      6440      6439      6442      6440      6439      6443
      6441      6439      6442      6441      6439      6443      6442      6439      6443
      6442      6444      6445      6442      6444      6446      6442      6444      6449
      6444      6449      6447      6444      6449      6450      6444      6449      6451
      6445      6444      6446      6445      6444      6449      6446      6444      6449
      6447      6449      6450      6447      6449      6451      6447      6499      6500
      6447      6499      6501      6448      6447      6449      6448      6447      6499
      6449      6447      6499      6449      6451      6452      6449      6451      6453
      6449      6451      6455      6450      6449      6451      6451      6453      6454
      6451      6455      6456      6451      6455      6457      6452      6451      6453
      6452      6451      6455      6453      6451      6455      6455      6457      6458
      6455      6457      6459      6456      6455      6457      6457      6459      6460
      6457      6459      6461      6457      6459      6462      6458      6457      6459
      6459      6462      6463      6459      6462      6464      6459      6462      6465
      6460      6459      6461      6460      6459      6462      6461      6459      6462
      6462      6465      6466      6462      6465      6467      6462      6465      6468
      6463      6462      6464      6463      6462      6465      6464      6462      6465
      6465      6468      6469      6465      6468      6470      6465      6468      6471
      6466      6465      6467      6466      6465      6468      6467      6465      6468
      6468      6471      6472      6468      6471      6473      6468      6471      6474
      6469      6468      6470      6469      6468      6471      6470      6468      6471
      6471      6474      6475      6471      6474      6476      6471      6474      6477
      6472      6471      6473      6472      6471      6474      6473      6471      6474
      6474      6477      6478      6474      6477      6479      6474      6477      6480
      6475      6474      6476      6475      6474      6477      6476      6474      6477
      6477      6480      6481      6477      6480      6482      6477      6480      6483
      6478      6477      6479      6478      6477      6480      6479      6477      6480
      6480      6483      6484      6480      6483      6485      6480      6483      6486
      6481      6480      6482      6481      6480      6483      6482      6480      6483
      6483      6486      6487      6483      6486      6488      6483      6486      6489
      6484      6483      6485      6484      6483      6486      6485      6483      6486
      6486      6489      6490      6486      6489      6491      6486      6489      6492
      6487      6486      6488      6487      6486      6489      6488      6486      6489
      6489      6492      6493      6489      6492      6494      6489      6492      6495
      6490      6489      6491      6490      6489      6492      6491      6489      6492
      6492      6495      6496      6492      6495      6497      6492      6495      6498
      6493      6492      6494      6493      6492      6495      6494      6492      6495
      6496      6495      6497      6496      6495      6498      6497      6495      6498
      6499      6501      6502      6499      6501      6503      6499      6501      6504
      6500      6499      6501      6501      6504      6505      6501      6504      6506
      6501      6504      6507      6502      6501      6503      6502      6501      6504
      6503      6501      6504      6504      6507      6508      6504      6507      6509
      6504      6507      6510      6505      6504      6506      6505      6504      6507
      6506      6504      6507      6507      6510      6511      6507      6510      6512
      6507      6510      6513      6508      6507      6509      6508      6507      6510
      6509      6507      6510      6510      6513      6514      6510      6513      6515
      6510      6513      6516      6511      6510      6512      6511      6510      6513
      6512      6510      6513      6513      6516      6517      6513      6516      6518
      6513      6516      6519      6514      6513      6515      6514      6513      6516
      6515      6513      6516      6516      6519      6520      6516      6519      6521
      6516      6519      6522      6517      6516      6518      6517      6516      6519
      6518      6516      6519      6519      6522      6523      6519      6522      6524
      6520      6519      6521      6520      6519      6522      6521      6519      6522
      6522      6524      6525      6522      6524      6526      6523      6522      6524
      6524      6526      6527      6524      6526      6528      6524      6526      6529
      6525      6524      6526      6526      6529      6530      6526      6529      6531
      6526      6529      6532      6527      6526      6528      6527      6526      6529
      6528      6526      6529      6529      6532      6533      6529      6532      6534
      6529      6532      6535      6530      6529      6531      6530      6529      6532
      6531      6529      6532      6532      6535      6536      6532      6535      6537
      6532      6535      6538      6533      6532      6534      6533      6532      6535
      6534      6532      6535      6535      6538      6539      6535      6538      6540
      6535      6538      6541      6536      6535      6537      6536      6535      6538
      6537      6535      6538      6538      6541      6542      6538      6541      6543
      6538      6541      6544      6539      6538      6540      6539      6538      6541
      6540      6538      6541      6541      6544      6545      6541      6544      6546
      6541      6544      6547      6542      6541      6543      6542      6541      6544
      6543      6541      6544      6544      6547      6548      6544      6547      6549
      6544      6547      6550      6545      6544      6546      6545      6544      6547
      6546      6544      6547      6548      6547      6549      6548      6547      6550
      6549      6547      6550      6551      6552      6553      6551      6552      6554
      6551      6552      6567      6551      6555      6556      6551      6555      6557
      6551      6555      6558      6551      6559      6560      6551      6559      6561
      6551      6559      6562      6551      6563      6564      6551      6563      6565
      6551      6563      6566      6552      6551      6555      6552      6551      6559
      6552      6551      6563      6552      6567      6568      6552      6567      6569
      6552      6567      6573      6553      6552      6554      6553      6552      6567
      6554      6552      6567      6555      6551      6559      6555      6551      6563
      6556      6555      6557      6556      6555      6558      6557      6555      6558
      6559      6551      6563      6560      6559      6561      6560      6559      6562
      6561      6559      6562      6564      6563      6565      6564      6563      6566
      6565      6563      6566      6567      6573      6570      6568      6567      6569
      6568      6567      6573      6569      6567      6573      6570      6574      6575
      6571      6570      6572      6571      6570      6573      6571      6570      6574
      6572      6570      6573      6572      6570      6574      6573      6570      6574
      6574      6575      6576      6574      6575      6577      6574      6575      6578
      6575      6578      6579      6575      6578      6580      6575      6578      6586
      6576      6575      6577      6576      6575      6578      6577      6575      6578
      6578      6580      6581      6578      6586      6587      6578      6586      6588
      6578      6586      6589      6579      6578      6580      6579      6578      6586
      6580      6578      6586      6580      6581      6582      6580      6581      6583
      6581      6583      6584      6581      6583      6585      6581      6583      6595
      6582      6581      6583      6583      6595      6596      6583      6595      6597
      6583      6595      6598      6584      6583      6585      6584      6583      6595
      6585      6583      6595      6586      6589      6590      6587      6586      6588
      6587      6586      6589      6588      6586      6589      6589      6590      6591
      6589      6590      6592      6590      6592      6593      6590      6592      6594
      6590      6592      6642      6591      6590      6592      6592      6642      6643
      6592      6642      6644      6592      6642      6645      6593      6592      6594
      6593      6592      6642      6594      6592      6642      6595      6598      6599
      6595      6598      6600      6595      6598      6601      6596      6595      6597
      6596      6595      6598      6597      6595      6598      6598      6601      6602
      6598      6601      6603      6599      6598      6600      6599      6598      6601
      6600      6598      6601      6601      6603      6604      6601      6603      6605
      6602      6601      6603      6603      6605      6606      6603      6605      6607
      6603      6605      6608      6604      6603      6605      6605      6608      6609
      6605      6608      6610      6606      6605      6607      6606      6605      6608
      6607      6605      6608      6608      6610      6611      6608      6610      6612
      6609      6608      6610      6610      6612      6613      6610      6612      6614
      6610      6612      6615      6611      6610      6612      6612      6615      6616
      6612      6615      6617      6613      6612      6614      6613      6612      6615
      6614      6612      6615      6615      6617      6618      6615      6617      6619
      6616      6615      6617      6617      6619      6620      6617      6619      6621
      6617      6619      6622      6618      6617      6619      6619      6622      6623
      6619      6622      6624      6620      6619      6621      6620      6619      6622
      6621      6619      6622      6622      6624      6625      6622      6624      6626
      6623      6622      6624      6624      6626      6627      6624      6626      6628
      6624      6626      6629      6625      6624      6626      6626      6629      6630
      6626      6629      6631      6626      6629      6632      6627      6626      6628
      6627      6626      6629      6628      6626      6629      6629      6632      6633
      6629      6632      6634      6629      6632      6635      6630      6629      6631
      6630      6629      6632      6631      6629      6632      6632      6635      6636
      6632      6635      6637      6632      6635      6638      6633      6632      6634
      6633      6632      6635      6634      6632      6635      6635      6638      6639
      6635      6638      6640      6635      6638      6641      6636      6635      6637
      6636      6635      6638      6637      6635      6638      6639      6638      6640
      6639      6638      6641      6640      6638      6641      6642      6645      6646
      6642      6645      6647      6642      6645      6648      6643      6642      6644
      6643      6642      6645      6644      6642      6645      6645      6648      6649
      6645      6648      6650      6645      6648      6651      6646      6645      6647
      6646      6645      6648      6647      6645      6648      6648      6651      6652
      6648      6651      6653      6648      6651      6654      6649      6648      6650
      6649      6648      6651      6650      6648      6651      6651      6654      6655
      6651      6654      6656      6651      6654      6657      6652      6651      6653
      6652      6651      6654      6653      6651      6654      6654      6657      6658
      6654      6657      6659      6654      6657      6660      6655      6654      6656
      6655      6654      6657      6656      6654      6657      6657      6660      6661
      6657      6660      6662      6657      6660      6663      6658      6657      6659
      6658      6657      6660      6659      6657      6660      6660      6663      6664
      6660      6663      6665      6660      6663      6666      6661      6660      6662
      6661      6660      6663      6662      6660      6663      6663      6666      6667
      6663      6666      6668      6663      6666      6669      6664      6663      6665
      6664      6663      6666      6665      6663      6666      6666      6669      6670
      6666      6669      6671      6666      6669      6672      6667      6666      6668
      6667      6666      6669      6668      6666      6669      6669      6672      6673
      6669      6672      6674      6669      6672      6675      6670      6669      6671
      6670      6669      6672      6671      6669      6672      6672      6675      6676
      6672      6675      6677      6672      6675      6678      6673      6672      6674
      6673      6672      6675      6674      6672      6675      6675      6678      6679
      6675      6678      6680      6675      6678      6681      6676      6675      6677
      6676      6675      6678      6677      6675      6678      6678      6681      6682
      6678      6681      6683      6678      6681      6684      6679      6678      6680
      6679      6678      6681      6680      6678      6681      6681      6684      6685
      6681      6684      6686      6681      6684      6687      6682      6681      6683
      6682      6681      6684      6683      6681      6684      6684      6687      6688
      6684      6687      6689      6684      6687      6690      6685      6684      6686
      6685      6684      6687      6686      6684      6687      6688      6687      6689
      6688      6687      6690      6689      6687      6690      6691      6693      6694
      6691      6695      6696      6691      6695      6697      6691      6695      6698
      6691      6737      6734      6691      6737      6738      6691      6737      6739
      6692      6691      6693      6692      6691      6695      6692      6691      6737
      6693      6691      6695      6693      6691      6737      6695      6691      6737
      6695      6698      6699      6695      6698      6729      6696      6695      6697
      6696      6695      6698      6697      6695      6698      6698      6699      6700
      6698      6699      6701      6698      6729      6727      6698      6729      6730
      6698      6729      6734      6699      6698      6729      6699      6701      6702
      6699      6701      6703      6699      6701      6704      6700      6699      6701
      6701      6704      6705      6701      6704      6706      6701      6704      6727
      6702      6701      6703      6702      6701      6704      6703      6701      6704
      6704      6706      6707      6704      6706      6708      6704      6706      6716
      6704      6727      6724      6704      6727      6728      6704      6727      6729
      6705      6704      6706      6705      6704      6727      6706      6704      6727
      6706      6708      6709      6706      6708      6710      6706      6708      6711
      6706      6716      6714      6706      6716      6717      6706      6716      6721
      6707      6706      6708      6707      6706      6716      6708      6706      6716
      6708      6711      6712      6708      6711      6713      6708      6711      6714
      6709      6708      6710      6709      6708      6711      6710      6708      6711
      6711      6714      6715      6711      6714      6716      6711      6714      6740
      6712      6711      6713      6712      6711      6714      6713      6711      6714
      6714      6716      6717      6714      6716      6721      6714      6740      6741
      6714      6740      6742      6714      6740      6746      6715      6714      6716
      6715      6714      6740      6716      6714      6740      6716      6717      6718
      6716      6717      6719      6716      6717      6720      6716      6721      6722
      6716      6721      6723      6716      6721      6724      6717      6716      6721
      6718      6717      6719      6718      6717      6720      6719      6717      6720
      6721      6724      6725      6721      6724      6726      6721      6724      6727
      6722      6721      6723      6722      6721      6724      6723      6721      6724
      6724      6727      6728      6724      6727      6729      6725      6724      6726
      6725      6724      6727      6726      6724      6727      6727      6729      6730
      6727      6729      6734      6728      6727      6729      6729      6730      6731
      6729      6730      6732      6729      6730      6733      6729      6734      6735
      6729      6734      6736      6729      6734      6737      6730      6729      6734
      6731      6730      6732      6731      6730      6733      6732      6730      6733
      6734      6737      6738      6734      6737      6739      6735      6734      6736
      6735      6734      6737      6736      6734      6737      6738      6737      6739
      6740      6742      6743      6740      6742      6744      6740      6742      6745
      6740      6746      6747      6740      6746      6748      6740      6746      6749
      6741      6740      6742      6741      6740      6746      6742      6740      6746
      6743      6742      6744      6743      6742      6745      6744      6742      6745
      6746      6749      6750      6746      6749      6751      6746      6749      6752
      6747      6746      6748      6747      6746      6749      6748      6746      6749
      6749      6752      6753      6749      6752      6754      6749      6752      6755
      6750      6749      6751      6750      6749      6752      6751      6749      6752
      6752      6755      6756      6752      6755      6757      6752      6755      6761
      6753      6752      6754      6753      6752      6755      6754      6752      6755
      6755      6757      6758      6755      6757      6759      6755      6757      6760
      6755      6761      6762      6755      6761      6763      6755      6761      6764
      6756      6755      6757      6756      6755      6761      6757      6755      6761
      6758      6757      6759      6758      6757      6760      6759      6757      6760
      6762      6761      6763      6762      6761      6764      6763      6761      6764
      6765      6767      6768      6765      6769      6770      6765      6769      6771
      6765      6769      6772      6765      6811      6808      6765      6811      6812
      6765      6811      6813      6766      6765      6767      6766      6765      6769
      6766      6765      6811      6767      6765      6769      6767      6765      6811
      6769      6765      6811      6769      6772      6773      6769      6772      6803
      6770      6769      6771      6770      6769      6772      6771      6769      6772
      6772      6773      6774      6772      6773      6775      6772      6803      6801
      6772      6803      6804      6772      6803      6808      6773      6772      6803
      6773      6775      6776      6773      6775      6777      6773      6775      6778
      6774      6773      6775      6775      6778      6779      6775      6778      6780
      6775      6778      6801      6776      6775      6777      6776      6775      6778
      6777      6775      6778      6778      6780      6781      6778      6780      6782
      6778      6780      6790      6778      6801      6798      6778      6801      6802
      6778      6801      6803      6779      6778      6780      6779      6778      6801
      6780      6778      6801      6780      6782      6783      6780      6782      6784
      6780      6782      6785      6780      6790      6788      6780      6790      6791
      6780      6790      6795      6781      6780      6782      6781      6780      6790
      6782      6780      6790      6782      6785      6786      6782      6785      6787
      6782      6785      6788      6783      6782      6784      6783      6782      6785
      6784      6782      6785      6785      6788      6789      6785      6788      6790
      6785      6788      6814      6786      6785      6787      6786      6785      6788
      6787      6785      6788      6788      6790      6791      6788      6790      6795
      6788      6814      6815      6788      6814      6816      6788      6814      6820
      6789      6788      6790      6789      6788      6814      6790      6788      6814
      6790      6791      6792      6790      6791      6793      6790      6791      6794
      6790      6795      6796      6790      6795      6797      6790      6795      6798
      6791      6790      6795      6792      6791      6793      6792      6791      6794
      6793      6791      6794      6795      6798      6799      6795      6798      6800
      6795      6798      6801      6796      6795      6797      6796      6795      6798
      6797      6795      6798      6798      6801      6802      6798      6801      6803
      6799      6798      6800      6799      6798      6801      6800      6798      6801
      6801      6803      6804      6801      6803      6808      6802      6801      6803
      6803      6804      6805      6803      6804      6806      6803      6804      6807
      6803      6808      6809      6803      6808      6810      6803      6808      6811
      6804      6803      6808      6805      6804      6806      6805      6804      6807
      6806      6804      6807      6808      6811      6812      6808      6811      6813
      6809      6808      6810      6809      6808      6811      6810      6808      6811
      6812      6811      6813      6814      6816      6817      6814      6816      6818
      6814      6816      6819      6814      6820      6821      6814      6820      6822
      6814      6820      6823      6815      6814      6816      6815      6814      6820
      6816      6814      6820      6817      6816      6818      6817      6816      6819
      6818      6816      6819      6820      6823      6824      6820      6823      6825
      6820      6823      6826      6821      6820      6822      6821      6820      6823
      6822      6820      6823      6823      6826      6827      6823      6826      6828
      6823      6826      6829      6824      6823      6825      6824      6823      6826
      6825      6823      6826      6826      6829      6830      6826      6829      6831
      6826      6829      6835      6827      6826      6828      6827      6826      6829
      6828      6826      6829      6829      6831      6832      6829      6831      6833
      6829      6831      6834      6829      6835      6836      6829      6835      6837
      6829      6835      6838      6830      6829      6831      6830      6829      6835
      6831      6829      6835      6832      6831      6833      6832      6831      6834
      6833      6831      6834      6836      6835      6837      6836      6835      6838
      6837      6835      6838      6839      6841      6842      6839      6843      6844
      6839      6843      6845      6839      6843      6846      6839      6885      6882
      6839      6885      6886      6839      6885      6887      6840      6839      6841
      6840      6839      6843      6840      6839      6885      6841      6839      6843
      6841      6839      6885      6843      6839      6885      6843      6846      6847
      6843      6846      6877      6844      6843      6845      6844      6843      6846
      6845      6843      6846      6846      6847      6848      6846      6847      6849
      6846      6877      6875      6846      6877      6878      6846      6877      6882
      6847      6846      6877      6847      6849      6850      6847      6849      6851
      6847      6849      6852      6848      6847      6849      6849      6852      6853
      6849      6852      6854      6849      6852      6875      6850      6849      6851
      6850      6849      6852      6851      6849      6852      6852      6854      6855
      6852      6854      6856      6852      6854      6864      6852      6875      6872
      6852      6875      6876      6852      6875      6877      6853      6852      6854
      6853      6852      6875      6854      6852      6875      6854      6856      6857
      6854      6856      6858      6854      6856      6859      6854      6864      6862
      6854      6864      6865      6854      6864      6869      6855      6854      6856
      6855      6854      6864      6856      6854      6864      6856      6859      6860
      6856      6859      6861      6856      6859      6862      6857      6856      6858
      6857      6856      6859      6858      6856      6859      6859      6862      6863
      6859      6862      6864      6859      6862      6888      6860      6859      6861
      6860      6859      6862      6861      6859      6862      6862      6864      6865
      6862      6864      6869      6862      6888      6889      6862      6888      6890
      6862      6888      6894      6863      6862      6864      6863      6862      6888
      6864      6862      6888      6864      6865      6866      6864      6865      6867
      6864      6865      6868      6864      6869      6870      6864      6869      6871
      6864      6869      6872      6865      6864      6869      6866      6865      6867
      6866      6865      6868      6867      6865      6868      6869      6872      6873
      6869      6872      6874      6869      6872      6875      6870      6869      6871
      6870      6869      6872      6871      6869      6872      6872      6875      6876
      6872      6875      6877      6873      6872      6874      6873      6872      6875
      6874      6872      6875      6875      6877      6878      6875      6877      6882
      6876      6875      6877      6877      6878      6879      6877      6878      6880
      6877      6878      6881      6877      6882      6883      6877      6882      6884
      6877      6882      6885      6878      6877      6882      6879      6878      6880
      6879      6878      6881      6880      6878      6881      6882      6885      6886
      6882      6885      6887      6883      6882      6884      6883      6882      6885
      6884      6882      6885      6886      6885      6887      6888      6890      6891
      6888      6890      6892      6888      6890      6893      6888      6894      6895
      6888      6894      6896      6888      6894      6897      6889      6888      6890
      6889      6888      6894      6890      6888      6894      6891      6890      6892
      6891      6890      6893      6892      6890      6893      6894      6897      6898
      6894      6897      6899      6894      6897      6900      6895      6894      6896
      6895      6894      6897      6896      6894      6897      6897      6900      6901
      6897      6900      6902      6897      6900      6903      6898      6897      6899
      6898      6897      6900      6899      6897      6900      6900      6903      6904
      6900      6903      6905      6900      6903      6909      6901      6900      6902
      6901      6900      6903      6902      6900      6903      6903      6905      6906
      6903      6905      6907      6903      6905      6908      6903      6909      6910
      6903      6909      6911      6903      6909      6912      6904      6903      6905
      6904      6903      6909      6905      6903      6909      6906      6905      6907
      6906      6905      6908      6907      6905      6908      6910      6909      6911
      6910      6909      6912      6911      6909      6912      6913      6915      6916
      6913      6917      6918      6913      6917      6919      6913      6917      6920
      6913      6959      6956      6913      6959      6960      6913      6959      6961
      6914      6913      6915      6914      6913      6917      6914      6913      6959
      6915      6913      6917      6915      6913      6959      6917      6913      6959
      6917      6920      6921      6917      6920      6951      6918      6917      6919
      6918      6917      6920      6919      6917      6920      6920      6921      6922
      6920      6921      6923      6920      6951      6949      6920      6951      6952
      6920      6951      6956      6921      6920      6951      6921      6923      6924
      6921      6923      6925      6921      6923      6926      6922      6921      6923
      6923      6926      6927      6923      6926      6928      6923      6926      6949
      6924      6923      6925      6924      6923      6926      6925      6923      6926
      6926      6928      6929      6926      6928      6930      6926      6928      6938
      6926      6949      6946      6926      6949      6950      6926      6949      6951
      6927      6926      6928      6927      6926      6949      6928      6926      6949
      6928      6930      6931      6928      6930      6932      6928      6930      6933
      6928      6938      6936      6928      6938      6939      6928      6938      6943
      6929      6928      6930      6929      6928      6938      6930      6928      6938
      6930      6933      6934      6930      6933      6935      6930      6933      6936
      6931      6930      6932      6931      6930      6933      6932      6930      6933
      6933      6936      6937      6933      6936      6938      6933      6936      6962
      6934      6933      6935      6934      6933      6936      6935      6933      6936
      6936      6938      6939      6936      6938      6943      6936      6962      6963
      6936      6962      6964      6936      6962      6968      6937      6936      6938
      6937      6936      6962      6938      6936      6962      6938      6939      6940
      6938      6939      6941      6938      6939      6942      6938      6943      6944
      6938      6943      6945      6938      6943      6946      6939      6938      6943
      6940      6939      6941      6940      6939      6942      6941      6939      6942
      6943      6946      6947      6943      6946      6948      6943      6946      6949
      6944      6943      6945      6944      6943      6946      6945      6943      6946
      6946      6949      6950      6946      6949      6951      6947      6946      6948
      6947      6946      6949      6948      6946      6949      6949      6951      6952
      6949      6951      6956      6950      6949      6951      6951      6952      6953
      6951      6952      6954      6951      6952      6955      6951      6956      6957
      6951      6956      6958      6951      6956      6959      6952      6951      6956
      6953      6952      6954      6953      6952      6955      6954      6952      6955
      6956      6959      6960      6956      6959      6961      6957      6956      6958
      6957      6956      6959      6958      6956      6959      6960      6959      6961
      6962      6964      6965      6962      6964      6966      6962      6964      6967
      6962      6968      6969      6962      6968      6970      6962      6968      6971
      6963      6962      6964      6963      6962      6968      6964      6962      6968
      6965      6964      6966      6965      6964      6967      6966      6964      6967
      6968      6971      6972      6968      6971      6973      6968      6971      6974
      6969      6968      6970      6969      6968      6971      6970      6968      6971
      6971      6974      6975      6971      6974      6976      6971      6974      6977
      6972      6971      6973      6972      6971      6974      6973      6971      6974
      6974      6977      6978      6974      6977      6979      6974      6977      6983
      6975      6974      6976      6975      6974      6977      6976      6974      6977
      6977      6979      6980      6977      6979      6981      6977      6979      6982
      6977      6983      6984      6977      6983      6985      6977      6983      6986
      6978      6977      6979      6978      6977      6983      6979      6977      6983
      6980      6979      6981      6980      6979      6982      6981      6979      6982
      6984      6983      6985      6984      6983      6986      6985      6983      6986
      6987      6988      6989      6987      6988      6990      6987      6988      6991
      6987      6992      6993      6987      6992      6994      6987      6992      6995
      6987      6996      6997      6987      6996      6998      6987      6996      6999
      6987      7000      7001      6987      7000      7002      6987      7000      7003
      6988      6987      6992      6988      6987      6996      6988      6987      7000
      6989      6988      6990      6989      6988      6991      6990      6988      6991
      6992      6987      6996      6992      6987      7000      6993      6992      6994
      6993      6992      6995      6994      6992      6995      6996      6987      7000
      6997      6996      6998      6997      6996      6999      6998      6996      6999
      7000      7003      7004      7000      7003      7005      7000      7003      7010
      7001      7000      7002      7001      7000      7003      7002      7000      7003
      7003      7010      7006      7004      7003      7005      7004      7003      7010
      7005      7003      7010      7006      7009      7011      7007      7006      7008
      7007      7006      7009      7007      7006      7010      7008      7006      7009
      7008      7006      7010      7009      7006      7010      7009      7011      7012
      7009      7011      7013      7009      7011      7016      7011      7016      7014
      7011      7016      7017      7011      7016      7018      7012      7011      7013
      7012      7011      7016      7013      7011      7016      7014      7016      7017
      7014      7016      7018      7014      7066      7067      7014      7066      7068
      7015      7014      7016      7015      7014      7066      7016      7014      7066
      7016      7018      7019      7016      7018      7020      7016      7018      7022
      7017      7016      7018      7018      7020      7021      7018      7022      7023
      7018      7022      7024      7019      7018      7020      7019      7018      7022
      7020      7018      7022      7022      7024      7025      7022      7024      7026
      7023      7022      7024      7024      7026      7027      7024      7026      7028
      7024      7026      7029      7025      7024      7026      7026      7029      7030
      7026      7029      7031      7026      7029      7032      7027      7026      7028
      7027      7026      7029      7028      7026      7029      7029      7032      7033
      7029      7032      7034      7029      7032      7035      7030      7029      7031
      7030      7029      7032      7031      7029      7032      7032      7035      7036
      7032      7035      7037      7032      7035      7038      7033      7032      7034
      7033      7032      7035      7034      7032      7035      7035      7038      7039
      7035      7038      7040      7035      7038      7041      7036      7035      7037
      7036      7035      7038      7037      7035      7038      7038      7041      7042
      7038      7041      7043      7038      7041      7044      7039      7038      7040
      7039      7038      7041      7040      7038      7041      7041      7044      7045
      7041      7044      7046      7041      7044      7047      7042      7041      7043
      7042      7041      7044      7043      7041      7044      7044      7047      7048
      7044      7047      7049      7044      7047      7050      7045      7044      7046
      7045      7044      7047      7046      7044      7047      7047      7050      7051
      7047      7050      7052      7047      7050      7053      7048      7047      7049
      7048      7047      7050      7049      7047      7050      7050      7053      7054
      7050      7053      7055      7050      7053      7056      7051      7050      7052
      7051      7050      7053      7052      7050      7053      7053      7056      7057
      7053      7056      7058      7053      7056      7059      7054      7053      7055
      7054      7053      7056      7055      7053      7056      7056      7059      7060
      7056      7059      7061      7056      7059      7062      7057      7056      7058
      7057      7056      7059      7058      7056      7059      7059      7062      7063
      7059      7062      7064      7059      7062      7065      7060      7059      7061
      7060      7059      7062      7061      7059      7062      7063      7062      7064
      7063      7062      7065      7064      7062      7065      7066      7068      7069
      7066      7068      7070      7066      7068      7071      7067      7066      7068
      7068      7071      7072      7068      7071      7073      7068      7071      7074
      7069      7068      7070      7069      7068      7071      7070      7068      7071
      7071      7074      7075      7071      7074      7076      7071      7074      7077
      7072      7071      7073      7072      7071      7074      7073      7071      7074
      7074      7077      7078      7074      7077      7079      7074      7077      7080
      7075      7074      7076      7075      7074      7077      7076      7074      7077
      7077      7080      7081      7077      7080      7082      7077      7080      7083
      7078      7077      7079      7078      7077      7080      7079      7077      7080
      7080      7083      7084      7080      7083      7085      7080      7083      7086
      7081      7080      7082      7081      7080      7083      7082      7080      7083
      7083      7086      7087      7083      7086      7088      7083      7086      7089
      7084      7083      7085      7084      7083      7086      7085      7083      7086
      7086      7089      7090      7086      7089      7091      7087      7086      7088
      7087      7086      7089      7088      7086      7089      7089      7091      7092
      7089      7091      7093      7090      7089      7091      7091      7093      7094
      7091      7093      7095      7091      7093      7096      7092      7091      7093
      7093      7096      7097      7093      7096      7098      7093      7096      7099
      7094      7093      7095      7094      7093      7096      7095      7093      7096
      7096      7099      7100      7096      7099      7101      7096      7099      7102
      7097      7096      7098      7097      7096      7099      7098      7096      7099
      7099      7102      7103      7099      7102      7104      7099      7102      7105
      7100      7099      7101      7100      7099      7102      7101      7099      7102
      7102      7105      7106      7102      7105      7107      7102      7105      7108
      7103      7102      7104      7103      7102      7105      7104      7102      7105
      7105      7108      7109      7105      7108      7110      7105      7108      7111
      7106      7105      7107      7106      7105      7108      7107      7105      7108
      7108      7111      7112      7108      7111      7113      7108      7111      7114
      7109      7108      7110      7109      7108      7111      7110      7108      7111
      7111      7114      7115      7111      7114      7116      7111      7114      7117
      7112      7111      7113      7112      7111      7114      7113      7111      7114
      7115      7114      7116      7115      7114      7117      7116      7114      7117
      7118      7120      7121      7118      7122      7123      7118      7122      7124
      7118      7122      7125      7118      7164      7161      7118      7164      7165
      7118      7164      7166      7119      7118      7120      7119      7118      7122
      7119      7118      7164      7120      7118      7122      7120      7118      7164
      7122      7118      7164      7122      7125      7126      7122      7125      7156
      7123      7122      7124      7123      7122      7125      7124      7122      7125
      7125      7126      7127      7125      7126      7128      7125      7156      7154
      7125      7156      7157      7125      7156      7161      7126      7125      7156
      7126      7128      7129      7126      7128      7130      7126      7128      7131
      7127      7126      7128      7128      7131      7132      7128      7131      7133
      7128      7131      7154      7129      7128      7130      7129      7128      7131
      7130      7128      7131      7131      7133      7134      7131      7133      7135
      7131      7133      7143      7131      7154      7151      7131      7154      7155
      7131      7154      7156      7132      7131      7133      7132      7131      7154
      7133      7131      7154      7133      7135      7136      7133      7135      7137
      7133      7135      7138      7133      7143      7141      7133      7143      7144
      7133      7143      7148      7134      7133      7135      7134      7133      7143
      7135      7133      7143      7135      7138      7139      7135      7138      7140
      7135      7138      7141      7136      7135      7137      7136      7135      7138
      7137      7135      7138      7138      7141      7142      7138      7141      7143
      7138      7141      7167      7139      7138      7140      7139      7138      7141
      7140      7138      7141      7141      7143      7144      7141      7143      7148
      7141      7167      7168      7141      7167      7169      7141      7167      7173
      7142      7141      7143      7142      7141      7167      7143      7141      7167
      7143      7144      7145      7143      7144      7146      7143      7144      7147
      7143      7148      7149      7143      7148      7150      7143      7148      7151
      7144      7143      7148      7145      7144      7146      7145      7144      7147
      7146      7144      7147      7148      7151      7152      7148      7151      7153
      7148      7151      7154      7149      7148      7150      7149      7148      7151
      7150      7148      7151      7151      7154      7155      7151      7154      7156
      7152      7151      7153      7152      7151      7154      7153      7151      7154
      7154      7156      7157      7154      7156      7161      7155      7154      7156
      7156      7157      7158      7156      7157      7159      7156      7157      7160
      7156      7161      7162      7156      7161      7163      7156      7161      7164
      7157      7156      7161      7158      7157      7159      7158      7157      7160
      7159      7157      7160      7161      7164      7165      7161      7164      7166
      7162      7161      7163      7162      7161      7164      7163      7161      7164
      7165      7164      7166      7167      7169      7170      7167      7169      7171
      7167      7169      7172      7167      7173      7174      7167      7173      7175
      7167      7173      7176      7168      7167      7169      7168      7167      7173
      7169      7167      7173      7170      7169      7171      7170      7169      7172
      7171      7169      7172      7173      7176      7177      7173      7176      7178
      7173      7176      7179      7174      7173      7175      7174      7173      7176
      7175      7173      7176      7176      7179      7180      7176      7179      7181
      7176      7179      7182      7177      7176      7178      7177      7176      7179
      7178      7176      7179      7179      7182      7183      7179      7182      7184
      7179      7182      7188      7180      7179      7181      7180      7179      7182
      7181      7179      7182      7182      7184      7185      7182      7184      7186
      7182      7184      7187      7182      7188      7189      7182      7188      7190
      7182      7188      7191      7183      7182      7184      7183      7182      7188
      7184      7182      7188      7185      7184      7186      7185      7184      7187
      7186      7184      7187      7189      7188      7190      7189      7188      7191
      7190      7188      7191      7192      7194      7195      7192      7196      7197
      7192      7196      7198      7192      7196      7199      7192      7238      7235
      7192      7238      7239      7192      7238      7240      7193      7192      7194
      7193      7192      7196      7193      7192      7238      7194      7192      7196
      7194      7192      7238      7196      7192      7238      7196      7199      7200
      7196      7199      7230      7197      7196      7198      7197      7196      7199
      7198      7196      7199      7199      7200      7201      7199      7200      7202
      7199      7230      7228      7199      7230      7231      7199      7230      7235
      7200      7199      7230      7200      7202      7203      7200      7202      7204
      7200      7202      7205      7201      7200      7202      7202      7205      7206
      7202      7205      7207      7202      7205      7228      7203      7202      7204
      7203      7202      7205      7204      7202      7205      7205      7207      7208
      7205      7207      7209      7205      7207      7217      7205      7228      7225
      7205      7228      7229      7205      7228      7230      7206      7205      7207
      7206      7205      7228      7207      7205      7228      7207      7209      7210
      7207      7209      7211      7207      7209      7212      7207      7217      7215
      7207      7217      7218      7207      7217      7222      7208      7207      7209
      7208      7207      7217      7209      7207      7217      7209      7212      7213
      7209      7212      7214      7209      7212      7215      7210      7209      7211
      7210      7209      7212      7211      7209      7212      7212      7215      7216
      7212      7215      7217      7212      7215      7241      7213      7212      7214
      7213      7212      7215      7214      7212      7215      7215      7217      7218
      7215      7217      7222      7215      7241      7242      7215      7241      7243
      7215      7241      7247      7216      7215      7217      7216      7215      7241
      7217      7215      7241      7217      7218      7219      7217      7218      7220
      7217      7218      7221      7217      7222      7223      7217      7222      7224
      7217      7222      7225      7218      7217      7222      7219      7218      7220
      7219      7218      7221      7220      7218      7221      7222      7225      7226
      7222      7225      7227      7222      7225      7228      7223      7222      7224
      7223      7222      7225      7224      7222      7225      7225      7228      7229
      7225      7228      7230      7226      7225      7227      7226      7225      7228
      7227      7225      7228      7228      7230      7231      7228      7230      7235
      7229      7228      7230      7230      7231      7232      7230      7231      7233
      7230      7231      7234      7230      7235      7236      7230      7235      7237
      7230      7235      7238      7231      7230      7235      7232      7231      7233
      7232      7231      7234      7233      7231      7234      7235      7238      7239
      7235      7238      7240      7236      7235      7237      7236      7235      7238
      7237      7235      7238      7239      7238      7240      7241      7243      7244
      7241      7243      7245      7241      7243      7246      7241      7247      7248
      7241      7247      7249      7241      7247      7250      7242      7241      7243
      7242      7241      7247      7243      7241      7247      7244      7243      7245
      7244      7243      7246      7245      7243      7246      7247      7250      7251
      7247      7250      7252      7247      7250      7253      7248      7247      7249
      7248      7247      7250      7249      7247      7250      7250      7253      7254
      7250      7253      7255      7250      7253      7256      7251      7250      7252
      7251      7250      7253      7252      7250      7253      7253      7256      7257
      7253      7256      7258      7253      7256      7262      7254      7253      7255
      7254      7253      7256      7255      7253      7256      7256      7258      7259
      7256      7258      7260      7256      7258      7261      7256      7262      7263
      7256      7262      7264      7256      7262      7265      7257      7256      7258
      7257      7256      7262      7258      7256      7262      7259      7258      7260
      7259      7258      7261      7260      7258      7261      7263      7262      7264
      7263      7262      7265      7264      7262      7265      7266      7267      7268
      7266      7267      7269      7266      7267      7270      7266      7271      7272
      7266      7271      7273      7266      7271      7274      7266      7275      7276
      7266      7275      7277      7266      7275      7278      7266      7279      7280
      7266      7279      7281      7266      7279      7282      7267      7266      7271
      7267      7266      7275      7267      7266      7279      7268      7267      7269
      7268      7267      7270      7269      7267      7270      7271      7266      7275
      7271      7266      7279      7272      7271      7273      7272      7271      7274
      7273      7271      7274      7275      7266      7279      7276      7275      7277
      7276      7275      7278      7277      7275      7278      7279      7282      7283
      7279      7282      7284      7279      7282      7289      7280      7279      7281
      7280      7279      7282      7281      7279      7282      7282      7289      7285
      7283      7282      7284      7283      7282      7289      7284      7282      7289
      7285      7288      7290      7286      7285      7287      7286      7285      7288
      7286      7285      7289      7287      7285      7288      7287      7285      7289
      7288      7285      7289      7288      7290      7291      7288      7290      7292
      7288      7290      7295      7290      7295      7293      7290      7295      7296
      7290      7295      7297      7291      7290      7292      7291      7290      7295
      7292      7290      7295      7293      7295      7296      7293      7295      7297
      7293      7345      7346      7293      7345      7347      7294      7293      7295
      7294      7293      7345      7295      7293      7345      7295      7297      7298
      7295      7297      7299      7295      7297      7301      7296      7295      7297
      7297      7299      7300      7297      7301      7302      7297      7301      7303
      7298      7297      7299      7298      7297      7301      7299      7297      7301
      7301      7303      7304      7301      7303      7305      7302      7301      7303
      7303      7305      7306      7303      7305      7307      7303      7305      7308
      7304      7303      7305      7305      7308      7309      7305      7308      7310
      7305      7308      7311      7306      7305      7307      7306      7305      7308
      7307      7305      7308      7308      7311      7312      7308      7311      7313
      7308      7311      7314      7309      7308      7310      7309      7308      7311
      7310      7308      7311      7311      7314      7315      7311      7314      7316
      7311      7314      7317      7312      7311      7313      7312      7311      7314
      7313      7311      7314      7314      7317      7318      7314      7317      7319
      7314      7317      7320      7315      7314      7316      7315      7314      7317
      7316      7314      7317      7317      7320      7321      7317      7320      7322
      7317      7320      7323      7318      7317      7319      7318      7317      7320
      7319      7317      7320      7320      7323      7324      7320      7323      7325
      7320      7323      7326      7321      7320      7322      7321      7320      7323
      7322      7320      7323      7323      7326      7327      7323      7326      7328
      7323      7326      7329      7324      7323      7325      7324      7323      7326
      7325      7323      7326      7326      7329      7330      7326      7329      7331
      7326      7329      7332      7327      7326      7328      7327      7326      7329
      7328      7326      7329      7329      7332      7333      7329      7332      7334
      7329      7332      7335      7330      7329      7331      7330      7329      7332
      7331      7329      7332      7332      7335      7336      7332      7335      7337
      7332      7335      7338      7333      7332      7334      7333      7332      7335
      7334      7332      7335      7335      7338      7339      7335      7338      7340
      7335      7338      7341      7336      7335      7337      7336      7335      7338
      7337      7335      7338      7338      7341      7342      7338      7341      7343
      7338      7341      7344      7339      7338      7340      7339      7338      7341
      7340      7338      7341      7342      7341      7343      7342      7341      7344
      7343      7341      7344      7345      7347      7348      7345      7347      7349
      7345      7347      7350      7346      7345      7347      7347      7350      7351
      7347      7350      7352      7347      7350      7353      7348      7347      7349
      7348      7347      7350      7349      7347      7350      7350      7353      7354
      7350      7353      7355      7350      7353      7356      7351      7350      7352
      7351      7350      7353      7352      7350      7353      7353      7356      7357
      7353      7356      7358      7353      7356      7359      7354      7353      7355
      7354      7353      7356      7355      7353      7356      7356      7359      7360
      7356      7359      7361      7356      7359      7362      7357      7356      7358
      7357      7356      7359      7358      7356      7359      7359      7362      7363
      7359      7362      7364      7359      7362      7365      7360      7359      7361
      7360      7359      7362      7361      7359      7362      7362      7365      7366
      7362      7365      7367      7362      7365      7368      7363      7362      7364
      7363      7362      7365      7364      7362      7365      7365      7368      7369
      7365      7368      7370      7366      7365      7367      7366      7365      7368
      7367      7365      7368      7368      7370      7371      7368      7370      7372
      7369      7368      7370      7370      7372      7373      7370      7372      7374
      7370      7372      7375      7371      7370      7372      7372      7375      7376
      7372      7375      7377      7372      7375      7378      7373      7372      7374
      7373      7372      7375      7374      7372      7375      7375      7378      7379
      7375      7378      7380      7375      7378      7381      7376      7375      7377
      7376      7375      7378      7377      7375      7378      7378      7381      7382
      7378      7381      7383      7378      7381      7384      7379      7378      7380
      7379      7378      7381      7380      7378      7381      7381      7384      7385
      7381      7384      7386      7381      7384      7387      7382      7381      7383
      7382      7381      7384      7383      7381      7384      7384      7387      7388
      7384      7387      7389      7384      7387      7390      7385      7384      7386
      7385      7384      7387      7386      7384      7387      7387      7390      7391
      7387      7390      7392      7387      7390      7393      7388      7387      7389
      7388      7387      7390      7389      7387      7390      7390      7393      7394
      7390      7393      7395      7390      7393      7396      7391      7390      7392
      7391      7390      7393      7392      7390      7393      7394      7393      7395
      7394      7393      7396      7395      7393      7396      7397      7399      7400
      7397      7401      7402      7397      7401      7403      7397      7401      7404
      7397      7443      7440      7397      7443      7444      7397      7443      7445
      7398      7397      7399      7398      7397      7401      7398      7397      7443
      7399      7397      7401      7399      7397      7443      7401      7397      7443
      7401      7404      7405      7401      7404      7435      7402      7401      7403
      7402      7401      7404      7403      7401      7404      7404      7405      7406
      7404      7405      7407      7404      7435      7433      7404      7435      7436
      7404      7435      7440      7405      7404      7435      7405      7407      7408
      7405      7407      7409      7405      7407      7410      7406      7405      7407
      7407      7410      7411      7407      7410      7412      7407      7410      7433
      7408      7407      7409      7408      7407      7410      7409      7407      7410
      7410      7412      7413      7410      7412      7414      7410      7412      7422
      7410      7433      7430      7410      7433      7434      7410      7433      7435
      7411      7410      7412      7411      7410      7433      7412      7410      7433
      7412      7414      7415      7412      7414      7416      7412      7414      7417
      7412      7422      7420      7412      7422      7423      7412      7422      7427
      7413      7412      7414      7413      7412      7422      7414      7412      7422
      7414      7417      7418      7414      7417      7419      7414      7417      7420
      7415      7414      7416      7415      7414      7417      7416      7414      7417
      7417      7420      7421      7417      7420      7422      7417      7420      7446
      7418      7417      7419      7418      7417      7420      7419      7417      7420
      7420      7422      7423      7420      7422      7427      7420      7446      7447
      7420      7446      7448      7420      7446      7452      7421      7420      7422
      7421      7420      7446      7422      7420      7446      7422      7423      7424
      7422      7423      7425      7422      7423      7426      7422      7427      7428
      7422      7427      7429      7422      7427      7430      7423      7422      7427
      7424      7423      7425      7424      7423      7426      7425      7423      7426
      7427      7430      7431      7427      7430      7432      7427      7430      7433
      7428      7427      7429      7428      7427      7430      7429      7427      7430
      7430      7433      7434      7430      7433      7435      7431      7430      7432
      7431      7430      7433      7432      7430      7433      7433      7435      7436
      7433      7435      7440      7434      7433      7435      7435      7436      7437
      7435      7436      7438      7435      7436      7439      7435      7440      7441
      7435      7440      7442      7435      7440      7443      7436      7435      7440
      7437      7436      7438      7437      7436      7439      7438      7436      7439
      7440      7443      7444      7440      7443      7445      7441      7440      7442
      7441      7440      7443      7442      7440      7443      7444      7443      7445
      7446      7448      7449      7446      7448      7450      7446      7448      7451
      7446      7452      7453      7446      7452      7454      7446      7452      7455
      7447      7446      7448      7447      7446      7452      7448      7446      7452
      7449      7448      7450      7449      7448      7451      7450      7448      7451
      7452      7455      7456      7452      7455      7457      7452      7455      7458
      7453      7452      7454      7453      7452      7455      7454      7452      7455
      7455      7458      7459      7455      7458      7460      7455      7458      7461
      7456      7455      7457      7456      7455      7458      7457      7455      7458
      7458      7461      7462      7458      7461      7463      7458      7461      7467
      7459      7458      7460      7459      7458      7461      7460      7458      7461
      7461      7463      7464      7461      7463      7465      7461      7463      7466
      7461      7467      7468      7461      7467      7469      7461      7467      7470
      7462      7461      7463      7462      7461      7467      7463      7461      7467
      7464      7463      7465      7464      7463      7466      7465      7463      7466
      7468      7467      7469      7468      7467      7470      7469      7467      7470
      7471      7472      7473      7471      7472      7474      7471      7472      7475
      7471      7476      7477      7471      7476      7478      7471      7476      7479
      7471      7480      7481      7471      7480      7482      7471      7480      7483
      7471      7484      7485      7471      7484      7486      7471      7484      7487
      7472      7471      7476      7472      7471      7480      7472      7471      7484
      7473      7472      7474      7473      7472      7475      7474      7472      7475
      7476      7471      7480      7476      7471      7484      7477      7476      7478
      7477      7476      7479      7478      7476      7479      7480      7471      7484
      7481      7480      7482      7481      7480      7483      7482      7480      7483
      7484      7487      7488      7484      7487      7489      7484      7487      7494
      7485      7484      7486      7485      7484      7487      7486      7484      7487
      7487      7494      7490      7488      7487      7489      7488      7487      7494
      7489      7487      7494      7490      7493      7495      7491      7490      7492
      7491      7490      7493      7491      7490      7494      7492      7490      7493
      7492      7490      7494      7493      7490      7494      7493      7495      7496
      7493      7495      7497      7493      7495      7500      7495      7500      7498
      7495      7500      7501      7495      7500      7502      7496      7495      7497
      7496      7495      7500      7497      7495      7500      7498      7500      7501
      7498      7500      7502      7498      7550      7551      7498      7550      7552
      7499      7498      7500      7499      7498      7550      7500      7498      7550
      7500      7502      7503      7500      7502      7504      7500      7502      7506
      7501      7500      7502      7502      7504      7505      7502      7506      7507
      7502      7506      7508      7503      7502      7504      7503      7502      7506
      7504      7502      7506      7506      7508      7509      7506      7508      7510
      7507      7506      7508      7508      7510      7511      7508      7510      7512
      7508      7510      7513      7509      7508      7510      7510      7513      7514
      7510      7513      7515      7510      7513      7516      7511      7510      7512
      7511      7510      7513      7512      7510      7513      7513      7516      7517
      7513      7516      7518      7513      7516      7519      7514      7513      7515
      7514      7513      7516      7515      7513      7516      7516      7519      7520
      7516      7519      7521      7516      7519      7522      7517      7516      7518
      7517      7516      7519      7518      7516      7519      7519      7522      7523
      7519      7522      7524      7519      7522      7525      7520      7519      7521
      7520      7519      7522      7521      7519      7522      7522      7525      7526
      7522      7525      7527      7522      7525      7528      7523      7522      7524
      7523      7522      7525      7524      7522      7525      7525      7528      7529
      7525      7528      7530      7525      7528      7531      7526      7525      7527
      7526      7525      7528      7527      7525      7528      7528      7531      7532
      7528      7531      7533      7528      7531      7534      7529      7528      7530
      7529      7528      7531      7530      7528      7531      7531      7534      7535
      7531      7534      7536      7531      7534      7537      7532      7531      7533
      7532      7531      7534      7533      7531      7534      7534      7537      7538
      7534      7537      7539      7534      7537      7540      7535      7534      7536
      7535      7534      7537      7536      7534      7537      7537      7540      7541
      7537      7540      7542      7537      7540      7543      7538      7537      7539
      7538      7537      7540      7539      7537      7540      7540      7543      7544
      7540      7543      7545      7540      7543      7546      7541      7540      7542
      7541      7540      7543      7542      7540      7543      7543      7546      7547
      7543      7546      7548      7543      7546      7549      7544      7543      7545
      7544      7543      7546      7545      7543      7546      7547      7546      7548
      7547      7546      7549      7548      7546      7549      7550      7552      7553
      7550      7552      7554      7550      7552      7555      7551      7550      7552
      7552      7555      7556      7552      7555      7557      7552      7555      7558
      7553      7552      7554      7553      7552      7555      7554      7552      7555
      7555      7558      7559      7555      7558      7560      7555      7558      7561
      7556      7555      7557      7556      7555      7558      7557      7555      7558
      7558      7561      7562      7558      7561      7563      7558      7561      7564
      7559      7558      7560      7559      7558      7561      7560      7558      7561
      7561      7564      7565      7561      7564      7566      7561      7564      7567
      7562      7561      7563      7562      7561      7564      7563      7561      7564
      7564      7567      7568      7564      7567      7569      7564      7567      7570
      7565      7564      7566      7565      7564      7567      7566      7564      7567
      7567      7570      7571      7567      7570      7572      7567      7570      7573
      7568      7567      7569      7568      7567      7570      7569      7567      7570
      7570      7573      7574      7570      7573      7575      7571      7570      7572
      7571      7570      7573      7572      7570      7573      7573      7575      7576
      7573      7575      7577      7574      7573      7575      7575      7577      7578
      7575      7577      7579      7575      7577      7580      7576      7575      7577
      7577      7580      7581      7577      7580      7582      7577      7580      7583
      7578      7577      7579      7578      7577      7580      7579      7577      7580
      7580      7583      7584      7580      7583      7585      7580      7583      7586
      7581      7580      7582      7581      7580      7583      7582      7580      7583
      7583      7586      7587      7583      7586      7588      7583      7586      7589
      7584      7583      7585      7584      7583      7586      7585      7583      7586
      7586      7589      7590      7586      7589      7591      7586      7589      7592
      7587      7586      7588      7587      7586      7589      7588      7586      7589
      7589      7592      7593      7589      7592      7594      7589      7592      7595
      7590      7589      7591      7590      7589      7592      7591      7589      7592
      7592      7595      7596      7592      7595      7597      7592      7595      7598
      7593      7592      7594      7593      7592      7595      7594      7592      7595
      7595      7598      7599      7595      7598      7600      7595      7598      7601
      7596      7595      7597      7596      7595      7598      7597      7595      7598
      7599      7598      7600      7599      7598      7601      7600      7598      7601
      7602      7604      7605      7602      7606      7607      7602      7606      7608
      7602      7606      7609      7602      7648      7645      7602      7648      7649
      7602      7648      7650      7603      7602      7604      7603      7602      7606
      7603      7602      7648      7604      7602      7606      7604      7602      7648
      7606      7602      7648      7606      7609      7610      7606      7609      7640
      7607      7606      7608      7607      7606      7609      7608      7606      7609
      7609      7610      7611      7609      7610      7612      7609      7640      7638
      7609      7640      7641      7609      7640      7645      7610      7609      7640
      7610      7612      7613      7610      7612      7614      7610      7612      7615
      7611      7610      7612      7612      7615      7616      7612      7615      7617
      7612      7615      7638      7613      7612      7614      7613      7612      7615
      7614      7612      7615      7615      7617      7618      7615      7617      7619
      7615      7617      7627      7615      7638      7635      7615      7638      7639
      7615      7638      7640      7616      7615      7617      7616      7615      7638
      7617      7615      7638      7617      7619      7620      7617      7619      7621
      7617      7619      7622      7617      7627      7625      7617      7627      7628
      7617      7627      7632      7618      7617      7619      7618      7617      7627
      7619      7617      7627      7619      7622      7623      7619      7622      7624
      7619      7622      7625      7620      7619      7621      7620      7619      7622
      7621      7619      7622      7622      7625      7626      7622      7625      7627
      7622      7625      7651      7623      7622      7624      7623      7622      7625
      7624      7622      7625      7625      7627      7628      7625      7627      7632
      7625      7651      7652      7625      7651      7653      7625      7651      7657
      7626      7625      7627      7626      7625      7651      7627      7625      7651
      7627      7628      7629      7627      7628      7630      7627      7628      7631
      7627      7632      7633      7627      7632      7634      7627      7632      7635
      7628      7627      7632      7629      7628      7630      7629      7628      7631
      7630      7628      7631      7632      7635      7636      7632      7635      7637
      7632      7635      7638      7633      7632      7634      7633      7632      7635
      7634      7632      7635      7635      7638      7639      7635      7638      7640
      7636      7635      7637      7636      7635      7638      7637      7635      7638
      7638      7640      7641      7638      7640      7645      7639      7638      7640
      7640      7641      7642      7640      7641      7643      7640      7641      7644
      7640      7645      7646      7640      7645      7647      7640      7645      7648
      7641      7640      7645      7642      7641      7643      7642      7641      7644
      7643      7641      7644      7645      7648      7649      7645      7648      7650
      7646      7645      7647      7646      7645      7648      7647      7645      7648
      7649      7648      7650      7651      7653      7654      7651      7653      7655
      7651      7653      7656      7651      7657      7658      7651      7657      7659
      7651      7657      7660      7652      7651      7653      7652      7651      7657
      7653      7651      7657      7654      7653      7655      7654      7653      7656
      7655      7653      7656      7657      7660      7661      7657      7660      7662
      7657      7660      7663      7658      7657      7659      7658      7657      7660
      7659      7657      7660      7660      7663      7664      7660      7663      7665
      7660      7663      7666      7661      7660      7662      7661      7660      7663
      7662      7660      7663      7663      7666      7667      7663      7666      7668
      7663      7666      7672      7664      7663      7665      7664      7663      7666
      7665      7663      7666      7666      7668      7669      7666      7668      7670
      7666      7668      7671      7666      7672      7673      7666      7672      7674
      7666      7672      7675      7667      7666      7668      7667      7666      7672
      7668      7666      7672      7669      7668      7670      7669      7668      7671
      7670      7668      7671      7673      7672      7674      7673      7672      7675
      7674      7672      7675      7676      7677      7678      7676      7677      7679
      7676      7677      7692      7676      7680      7681      7676      7680      7682
      7676      7680      7683      7676      7684      7685      7676      7684      7686
      7676      7684      7687      7676      7688      7689      7676      7688      7690
      7676      7688      7691      7677      7676      7680      7677      7676      7684
      7677      7676      7688      7677      7692      7693      7677      7692      7694
      7677      7692      7698      7678      7677      7679      7678      7677      7692
      7679      7677      7692      7680      7676      7684      7680      7676      7688
      7681      7680      7682      7681      7680      7683      7682      7680      7683
      7684      7676      7688      7685      7684      7686      7685      7684      7687
      7686      7684      7687      7689      7688      7690      7689      7688      7691
      7690      7688      7691      7692      7698      7695      7693      7692      7694
      7693      7692      7698      7694      7692      7698      7695      7699      7700
      7696      7695      7697      7696      7695      7698      7696      7695      7699
      7697      7695      7698      7697      7695      7699      7698      7695      7699
      7699      7700      7701      7699      7700      7702      7699      7700      7703
      7700      7703      7704      7700      7703      7705      7700      7703      7711
      7701      7700      7702      7701      7700      7703      7702      7700      7703
      7703      7705      7706      7703      7711      7712      7703      7711      7713
      7703      7711      7714      7704      7703      7705      7704      7703      7711
      7705      7703      7711      7705      7706      7707      7705      7706      7708
      7706      7708      7709      7706      7708      7710      7706      7708      7720
      7707      7706      7708      7708      7720      7721      7708      7720      7722
      7708      7720      7723      7709      7708      7710      7709      7708      7720
      7710      7708      7720      7711      7714      7715      7712      7711      7713
      7712      7711      7714      7713      7711      7714      7714      7715      7716
      7714      7715      7717      7715      7717      7718      7715      7717      7719
      7715      7717      7767      7716      7715      7717      7717      7767      7768
      7717      7767      7769      7717      7767      7770      7718      7717      7719
      7718      7717      7767      7719      7717      7767      7720      7723      7724
      7720      7723      7725      7720      7723      7726      7721      7720      7722
      7721      7720      7723      7722      7720      7723      7723      7726      7727
      7723      7726      7728      7724      7723      7725      7724      7723      7726
      7725      7723      7726      7726      7728      7729      7726      7728      7730
      7727      7726      7728      7728      7730      7731      7728      7730      7732
      7728      7730      7733      7729      7728      7730      7730      7733      7734
      7730      7733      7735      7731      7730      7732      7731      7730      7733
      7732      7730      7733      7733      7735      7736      7733      7735      7737
      7734      7733      7735      7735      7737      7738      7735      7737      7739
      7735      7737      7740      7736      7735      7737      7737      7740      7741
      7737      7740      7742      7738      7737      7739      7738      7737      7740
      7739      7737      7740      7740      7742      7743      7740      7742      7744
      7741      7740      7742      7742      7744      7745      7742      7744      7746
      7742      7744      7747      7743      7742      7744      7744      7747      7748
      7744      7747      7749      7745      7744      7746      7745      7744      7747
      7746      7744      7747      7747      7749      7750      7747      7749      7751
      7748      7747      7749      7749      7751      7752      7749      7751      7753
      7749      7751      7754      7750      7749      7751      7751      7754      7755
      7751      7754      7756      7751      7754      7757      7752      7751      7753
      7752      7751      7754      7753      7751      7754      7754      7757      7758
      7754      7757      7759      7754      7757      7760      7755      7754      7756
      7755      7754      7757      7756      7754      7757      7757      7760      7761
      7757      7760      7762      7757      7760      7763      7758      7757      7759
      7758      7757      7760      7759      7757      7760      7760      7763      7764
      7760      7763      7765      7760      7763      7766      7761      7760      7762
      7761      7760      7763      7762      7760      7763      7764      7763      7765
      7764      7763      7766      7765      7763      7766      7767      7770      7771
      7767      7770      7772      7767      7770      7773      7768      7767      7769
      7768      7767      7770      7769      7767      7770      7770      7773      7774
      7770      7773      7775      7770      7773      7776      7771      7770      7772
      7771      7770      7773      7772      7770      7773      7773      7776      7777
      7773      7776      7778      7773      7776      7779      7774      7773      7775
      7774      7773      7776      7775      7773      7776      7776      7779      7780
      7776      7779      7781      7776      7779      7782      7777      7776      7778
      7777      7776      7779      7778      7776      7779      7779      7782      7783
      7779      7782      7784      7779      7782      7785      7780      7779      7781
      7780      7779      7782      7781      7779      7782      7782      7785      7786
      7782      7785      7787      7782      7785      7788      7783      7782      7784
      7783      7782      7785      7784      7782      7785      7785      7788      7789
      7785      7788      7790      7785      7788      7791      7786      7785      7787
      7786      7785      7788      7787      7785      7788      7788      7791      7792
      7788      7791      7793      7788      7791      7794      7789      7788      7790
      7789      7788      7791      7790      7788      7791      7791      7794      7795
      7791      7794      7796      7791      7794      7797      7792      7791      7793
      7792      7791      7794      7793      7791      7794      7794      7797      7798
      7794      7797      7799      7794      7797      7800      7795      7794      7796
      7795      7794      7797      7796      7794      7797      7797      7800      7801
      7797      7800      7802      7797      7800      7803      7798      7797      7799
      7798      7797      7800      7799      7797      7800      7800      7803      7804
      7800      7803      7805      7800      7803      7806      7801      7800      7802
      7801      7800      7803      7802      7800      7803      7803      7806      7807
      7803      7806      7808      7803      7806      7809      7804      7803      7805
      7804      7803      7806      7805      7803      7806      7806      7809      7810
      7806      7809      7811      7806      7809      7812      7807      7806      7808
      7807      7806      7809      7808      7806      7809      7809      7812      7813
      7809      7812      7814      7809      7812      7815      7810      7809      7811
      7810      7809      7812      7811      7809      7812      7813      7812      7814
      7813      7812      7815      7814      7812      7815      7816      7820      7821
      7816      7820      7822      7816      7820      7823      7817      7816      7818
      7817      7816      7819      7817      7816      7820      7818      7816      7819
      7818      7816      7820      7819      7816      7820      7820      7823      7824
      7820      7823      7825      7820      7823      7829      7821      7820      7822
      7821      7820      7823      7822      7820      7823      7823      7829      7826
      7824      7823      7825      7824      7823      7829      7825      7823      7829
      7826      7830      7831      7827      7826      7828      7827      7826      7829
      7827      7826      7830      7828      7826      7829      7828      7826      7830
      7829      7826      7830      7830      7831      7832      7830      7831      7833
      7830      7831      7834      7831      7834      7835      7831      7834      7836
      7831      7834      7842      7832      7831      7833      7832      7831      7834
      7833      7831      7834      7834      7836      7837      7834      7842      7843
      7834      7842      7844      7834      7842      7845      7835      7834      7836
      7835      7834      7842      7836      7834      7842      7836      7837      7838
      7836      7837      7839      7837      7839      7840      7837      7839      7841
      7837      7839      7851      7838      7837      7839      7839      7851      7852
      7839      7851      7853      7839      7851      7854      7840      7839      7841
      7840      7839      7851      7841      7839      7851      7842      7845      7846
      7843      7842      7844      7843      7842      7845      7844      7842      7845
      7845      7846      7847      7845      7846      7848      7846      7848      7849
      7846      7848      7850      7846      7848      7898      7847      7846      7848
      7848      7898      7899      7848      7898      7900      7848      7898      7901
      7849      7848      7850      7849      7848      7898      7850      7848      7898
      7851      7854      7855      7851      7854      7856      7851      7854      7857
      7852      7851      7853      7852      7851      7854      7853      7851      7854
      7854      7857      7858      7854      7857      7859      7854      7857      7860
      7855      7854      7856      7855      7854      7857      7856      7854      7857
      7857      7860      7861      7857      7860      7862      7857      7860      7863
      7858      7857      7859      7858      7857      7860      7859      7857      7860
      7860      7863      7864      7860      7863      7865      7860      7863      7866
      7861      7860      7862      7861      7860      7863      7862      7860      7863
      7863      7866      7867      7863      7866      7868      7863      7866      7869
      7864      7863      7865      7864      7863      7866      7865      7863      7866
      7866      7869      7870      7866      7869      7871      7867      7866      7868
      7867      7866      7869      7868      7866      7869      7869      7871      7872
      7869      7871      7873      7870      7869      7871      7871      7873      7874
      7871      7873      7875      7871      7873      7876      7872      7871      7873
      7873      7876      7877      7873      7876      7878      7873      7876      7879
      7874      7873      7875      7874      7873      7876      7875      7873      7876
      7876      7879      7880      7876      7879      7881      7876      7879      7882
      7877      7876      7878      7877      7876      7879      7878      7876      7879
      7879      7882      7883      7879      7882      7884      7879      7882      7885
      7880      7879      7881      7880      7879      7882      7881      7879      7882
      7882      7885      7886      7882      7885      7887      7882      7885      7888
      7883      7882      7884      7883      7882      7885      7884      7882      7885
      7885      7888      7889      7885      7888      7890      7885      7888      7891
      7886      7885      7887      7886      7885      7888      7887      7885      7888
      7888      7891      7892      7888      7891      7893      7888      7891      7894
      7889      7888      7890      7889      7888      7891      7890      7888      7891
      7891      7894      7895      7891      7894      7896      7891      7894      7897
      7892      7891      7893      7892      7891      7894      7893      7891      7894
      7895      7894      7896      7895      7894      7897      7896      7894      7897
      7898      7901      7902      7898      7901      7903      7898      7901      7904
      7899      7898      7900      7899      7898      7901      7900      7898      7901
      7901      7904      7905      7901      7904      7906      7901      7904      7907
      7902      7901      7903      7902      7901      7904      7903      7901      7904
      7904      7907      7908      7904      7907      7909      7904      7907      7910
      7905      7904      7906      7905      7904      7907      7906      7904      7907
      7907      7910      7911      7907      7910      7912      7907      7910      7913
      7908      7907      7909      7908      7907      7910      7909      7907      7910
      7910      7913      7914      7910      7913      7915      7910      7913      7916
      7911      7910      7912      7911      7910      7913      7912      7910      7913
      7913      7916      7917      7913      7916      7918      7913      7916      7919
      7914      7913      7915      7914      7913      7916      7915      7913      7916
      7916      7919      7920      7916      7919      7921      7916      7919      7922
      7917      7916      7918      7917      7916      7919      7918      7916      7919
      7919      7922      7923      7919      7922      7924      7919      7922      7925
      7920      7919      7921      7920      7919      7922      7921      7919      7922
      7922      7925      7926      7922      7925      7927      7922      7925      7928
      7923      7922      7924      7923      7922      7925      7924      7922      7925
      7925      7928      7929      7925      7928      7930      7925      7928      7931
      7926      7925      7927      7926      7925      7928      7927      7925      7928
      7928      7931      7932      7928      7931      7933      7928      7931      7934
      7929      7928      7930      7929      7928      7931      7930      7928      7931
      7931      7934      7935      7931      7934      7936      7931      7934      7937
      7932      7931      7933      7932      7931      7934      7933      7931      7934
      7934      7937      7938      7934      7937      7939      7934      7937      7940
      7935      7934      7936      7935      7934      7937      7936      7934      7937
      7937      7940      7941      7937      7940      7942      7937      7940      7943
      7938      7937      7939      7938      7937      7940      7939      7937      7940
      7940      7943      7944      7940      7943      7945      7940      7943      7946
      7941      7940      7942      7941      7940      7943      7942      7940      7943
      7944      7943      7945      7944      7943      7946      7945      7943      7946
      7947      7951      7952      7947      7951      7953      7947      7951      7954
      7948      7947      7949      7948      7947      7950      7948      7947      7951
      7949      7947      7950      7949      7947      7951      7950      7947      7951
      7951      7954      7955      7951      7954      7956      7951      7954      7960
      7952      7951      7953      7952      7951      7954      7953      7951      7954
      7954      7960      7957      7955      7954      7956      7955      7954      7960
      7956      7954      7960      7957      7961      7962      7958      7957      7959
      7958      7957      7960      7958      7957      7961      7959      7957      7960
      7959      7957      7961      7960      7957      7961      7961      7962      7963
      7961      7962      7964      7961      7962      7965      7962      7965      7966
      7962      7965      7967      7962      7965      7973      7963      7962      7964
      7963      7962      7965      7964      7962      7965      7965      7967      7968
      7965      7973      7974      7965      7973      7975      7965      7973      7976
      7966      7965      7967      7966      7965      7973      7967      7965      7973
      7967      7968      7969      7967      7968      7970      7968      7970      7971
      7968      7970      7972      7968      7970      7982      7969      7968      7970
      7970      7982      7983      7970      7982      7984      7970      7982      7985
      7971      7970      7972      7971      7970      7982      7972      7970      7982
      7973      7976      7977      7974      7973      7975      7974      7973      7976
      7975      7973      7976      7976      7977      7978      7976      7977      7979
      7977      7979      7980      7977      7979      7981      7977      7979      8029
      7978      7977      7979      7979      8029      8030      7979      8029      8031
      7979      8029      8032      7980      7979      7981      7980      7979      8029
      7981      7979      8029      7982      7985      7986      7982      7985      7987
      7982      7985      7988      7983      7982      7984      7983      7982      7985
      7984      7982      7985      7985      7988      7989      7985      7988      7990
      7986      7985      7987      7986      7985      7988      7987      7985      7988
      7988      7990      7991      7988      7990      7992      7989      7988      7990
      7990      7992      7993      7990      7992      7994      7990      7992      7995
      7991      7990      7992      7992      7995      7996      7992      7995      7997
      7993      7992      7994      7993      7992      7995      7994      7992      7995
      7995      7997      7998      7995      7997      7999      7996      7995      7997
      7997      7999      8000      7997      7999      8001      7997      7999      8002
      7998      7997      7999      7999      8002      8003      7999      8002      8004
      8000      7999      8001      8000      7999      8002      8001      7999      8002
      8002      8004      8005      8002      8004      8006      8003      8002      8004
      8004      8006      8007      8004      8006      8008      8004      8006      8009
      8005      8004      8006      8006      8009      8010      8006      8009      8011
      8007      8006      8008      8007      8006      8009      8008      8006      8009
      8009      8011      8012      8009      8011      8013      8010      8009      8011
      8011      8013      8014      8011      8013      8015      8011      8013      8016
      8012      8011      8013      8013      8016      8017      8013      8016      8018
      8013      8016      8019      8014      8013      8015      8014      8013      8016
      8015      8013      8016      8016      8019      8020      8016      8019      8021
      8016      8019      8022      8017      8016      8018      8017      8016      8019
      8018      8016      8019      8019      8022      8023      8019      8022      8024
      8019      8022      8025      8020      8019      8021      8020      8019      8022
      8021      8019      8022      8022      8025      8026      8022      8025      8027
      8022      8025      8028      8023      8022      8024      8023      8022      8025
      8024      8022      8025      8026      8025      8027      8026      8025      8028
      8027      8025      8028      8029      8032      8033      8029      8032      8034
      8029      8032      8035      8030      8029      8031      8030      8029      8032
      8031      8029      8032      8032      8035      8036      8032      8035      8037
      8032      8035      8038      8033      8032      8034      8033      8032      8035
      8034      8032      8035      8035      8038      8039      8035      8038      8040
      8035      8038      8041      8036      8035      8037      8036      8035      8038
      8037      8035      8038      8038      8041      8042      8038      8041      8043
      8038      8041      8044      8039      8038      8040      8039      8038      8041
      8040      8038      8041      8041      8044      8045      8041      8044      8046
      8041      8044      8047      8042      8041      8043      8042      8041      8044
      8043      8041      8044      8044      8047      8048      8044      8047      8049
      8044      8047      8050      8045      8044      8046      8045      8044      8047
      8046      8044      8047      8047      8050      8051      8047      8050      8052
      8047      8050      8053      8048      8047      8049      8048      8047      8050
      8049      8047      8050      8050      8053      8054      8050      8053      8055
      8050      8053      8056      8051      8050      8052      8051      8050      8053
      8052      8050      8053      8053      8056      8057      8053      8056      8058
      8053      8056      8059      8054      8053      8055      8054      8053      8056
      8055      8053      8056      8056      8059      8060      8056      8059      8061
      8056      8059      8062      8057      8056      8058      8057      8056      8059
      8058      8056      8059      8059      8062      8063      8059      8062      8064
      8059      8062      8065      8060      8059      8061      8060      8059      8062
      8061      8059      8062      8062      8065      8066      8062      8065      8067
      8062      8065      8068      8063      8062      8064      8063      8062      8065
      8064      8062      8065      8065      8068      8069      8065      8068      8070
      8065      8068      8071      8066      8065      8067      8066      8065      8068
      8067      8065      8068      8068      8071      8072      8068      8071      8073
      8068      8071      8074      8069      8068      8070      8069      8068      8071
      8070      8068      8071      8071      8074      8075      8071      8074      8076
      8071      8074      8077      8072      8071      8073      8072      8071      8074
      8073      8071      8074      8075      8074      8076      8075      8074      8077
      8076      8074      8077      8078      8079      8080      8078      8079      8081
      8078      8079      8082      8078      8083      8084      8078      8083      8085
      8078      8083      8086      8078      8087      8088      8078      8087      8089
      8078      8087      8090      8078      8091      8092      8078      8091      8093
      8078      8091      8094      8079      8078      8083      8079      8078      8087
      8079      8078      8091      8080      8079      8081      8080      8079      8082
      8081      8079      8082      8083      8078      8087      8083      8078      8091
      8084      8083      8085      8084      8083      8086      8085      8083      8086
      8087      8078      8091      8088      8087      8089      8088      8087      8090
      8089      8087      8090      8091      8094      8095      8091      8094      8096
      8091      8094      8100      8092      8091      8093      8092      8091      8094
      8093      8091      8094      8094      8100      8097      8095      8094      8096
      8095      8094      8100      8096      8094      8100      8097      8101      8102
      8098      8097      8099      8098      8097      8100      8098      8097      8101
      8099      8097      8100      8099      8097      8101      8100      8097      8101
      8101      8102      8103      8101      8102      8104      8101      8102      8105
      8102      8105      8106      8102      8105      8107      8102      8105      8113
      8103      8102      8104      8103      8102      8105      8104      8102      8105
      8105      8107      8108      8105      8113      8114      8105      8113      8115
      8105      8113      8116      8106      8105      8107      8106      8105      8113
      8107      8105      8113      8107      8108      8109      8107      8108      8110
      8108      8110      8111      8108      8110      8112      8108      8110      8122
      8109      8108      8110      8110      8122      8123      8110      8122      8124
      8110      8122      8125      8111      8110      8112      8111      8110      8122
      8112      8110      8122      8113      8116      8117      8114      8113      8115
      8114      8113      8116      8115      8113      8116      8116      8117      8118
      8116      8117      8119      8117      8119      8120      8117      8119      8121
      8117      8119      8167      8118      8117      8119      8119      8167      8168
      8119      8167      8169      8119      8167      8170      8120      8119      8121
      8120      8119      8167      8121      8119      8167      8122      8125      8126
      8122      8125      8127      8122      8125      8128      8123      8122      8124
      8123      8122      8125      8124      8122      8125      8125      8128      8129
      8125      8128      8130      8125      8128      8131      8126      8125      8127
      8126      8125      8128      8127      8125      8128      8128      8131      8132
      8128      8131      8133      8128      8131      8134      8129      8128      8130
      8129      8128      8131      8130      8128      8131      8131      8134      8135
      8131      8134      8136      8131      8134      8137      8132      8131      8133
      8132      8131      8134      8133      8131      8134      8134      8137      8138
      8134      8137      8139      8134      8137      8140      8135      8134      8136
      8135      8134      8137      8136      8134      8137      8137      8140      8141
      8137      8140      8142      8138      8137      8139      8138      8137      8140
      8139      8137      8140      8140      8142      8143      8140      8142      8144
      8141      8140      8142      8142      8144      8145      8142      8144      8146
      8142      8144      8147      8143      8142      8144      8144      8147      8148
      8144      8147      8149      8145      8144      8146      8145      8144      8147
      8146      8144      8147      8147      8149      8150      8147      8149      8151
      8148      8147      8149      8149      8151      8152      8149      8151      8153
      8149      8151      8154      8150      8149      8151      8151      8154      8155
      8151      8154      8156      8151      8154      8157      8152      8151      8153
      8152      8151      8154      8153      8151      8154      8154      8157      8158
      8154      8157      8159      8154      8157      8160      8155      8154      8156
      8155      8154      8157      8156      8154      8157      8157      8160      8161
      8157      8160      8162      8157      8160      8163      8158      8157      8159
      8158      8157      8160      8159      8157      8160      8160      8163      8164
      8160      8163      8165      8160      8163      8166      8161      8160      8162
      8161      8160      8163      8162      8160      8163      8164      8163      8165
      8164      8163      8166      8165      8163      8166      8167      8170      8171
      8167      8170      8172      8167      8170      8173      8168      8167      8169
      8168      8167      8170      8169      8167      8170      8170      8173      8174
      8170      8173      8175      8170      8173      8176      8171      8170      8172
      8171      8170      8173      8172      8170      8173      8173      8176      8177
      8173      8176      8178      8173      8176      8179      8174      8173      8175
      8174      8173      8176      8175      8173      8176      8176      8179      8180
      8176      8179      8181      8176      8179      8182      8177      8176      8178
      8177      8176      8179      8178      8176      8179      8179      8182      8183
      8179      8182      8184      8179      8182      8185      8180      8179      8181
      8180      8179      8182      8181      8179      8182      8182      8185      8186
      8182      8185      8187      8182      8185      8188      8183      8182      8184
      8183      8182      8185      8184      8182      8185      8185      8188      8189
      8185      8188      8190      8185      8188      8191      8186      8185      8187
      8186      8185      8188      8187      8185      8188      8188      8191      8192
      8188      8191      8193      8188      8191      8194      8189      8188      8190
      8189      8188      8191      8190      8188      8191      8191      8194      8195
      8191      8194      8196      8191      8194      8197      8192      8191      8193
      8192      8191      8194      8193      8191      8194      8194      8197      8198
      8194      8197      8199      8194      8197      8200      8195      8194      8196
      8195      8194      8197      8196      8194      8197      8197      8200      8201
      8197      8200      8202      8197      8200      8203      8198      8197      8199
      8198      8197      8200      8199      8197      8200      8200      8203      8204
      8200      8203      8205      8200      8203      8206      8201      8200      8202
      8201      8200      8203      8202      8200      8203      8203      8206      8207
      8203      8206      8208      8203      8206      8209      8204      8203      8205
      8204      8203      8206      8205      8203      8206      8206      8209      8210
      8206      8209      8211      8206      8209      8212      8207      8206      8208
      8207      8206      8209      8208      8206      8209      8209      8212      8213
      8209      8212      8214      8209      8212      8215      8210      8209      8211
      8210      8209      8212      8211      8209      8212      8213      8212      8214
      8213      8212      8215      8214      8212      8215      8216      8217      8218
      8216      8217      8219      8216      8217      8220      8216      8221      8222
      8216      8221      8223      8216      8221      8224      8216      8225      8226
      8216      8225      8227      8216      8225      8228      8216      8229      8230
      8216      8229      8231      8216      8229      8232      8217      8216      8221
      8217      8216      8225      8217      8216      8229      8218      8217      8219
      8218      8217      8220      8219      8217      8220      8221      8216      8225
      8221      8216      8229      8222      8221      8223      8222      8221      8224
      8223      8221      8224      8225      8216      8229      8226      8225      8227
      8226      8225      8228      8227      8225      8228      8229      8232      8233
      8229      8232      8234      8229      8232      8238      8230      8229      8231
      8230      8229      8232      8231      8229      8232      8232      8238      8235
      8233      8232      8234      8233      8232      8238      8234      8232      8238
      8235      8239      8240      8236      8235      8237      8236      8235      8238
      8236      8235      8239      8237      8235      8238      8237      8235      8239
      8238      8235      8239      8239      8240      8241      8239      8240      8242
      8239      8240      8243      8240      8243      8244      8240      8243      8245
      8240      8243      8251      8241      8240      8242      8241      8240      8243
      8242      8240      8243      8243      8245      8246      8243      8251      8252
      8243      8251      8253      8243      8251      8254      8244      8243      8245
      8244      8243      8251      8245      8243      8251      8245      8246      8247
      8245      8246      8248      8246      8248      8249      8246      8248      8250
      8246      8248      8260      8247      8246      8248      8248      8260      8261
      8248      8260      8262      8248      8260      8263      8249      8248      8250
      8249      8248      8260      8250      8248      8260      8251      8254      8255
      8252      8251      8253      8252      8251      8254      8253      8251      8254
      8254      8255      8256      8254      8255      8257      8255      8257      8258
      8255      8257      8259      8255      8257      8305      8256      8255      8257
      8257      8305      8306      8257      8305      8307      8257      8305      8308
      8258      8257      8259      8258      8257      8305      8259      8257      8305
      8260      8263      8264      8260      8263      8265      8260      8263      8266
      8261      8260      8262      8261      8260      8263      8262      8260      8263
      8263      8266      8267      8263      8266      8268      8263      8266      8269
      8264      8263      8265      8264      8263      8266      8265      8263      8266
      8266      8269      8270      8266      8269      8271      8266      8269      8272
      8267      8266      8268      8267      8266      8269      8268      8266      8269
      8269      8272      8273      8269      8272      8274      8269      8272      8275
      8270      8269      8271      8270      8269      8272      8271      8269      8272
      8272      8275      8276      8272      8275      8277      8272      8275      8278
      8273      8272      8274      8273      8272      8275      8274      8272      8275
      8275      8278      8279      8275      8278      8280      8276      8275      8277
      8276      8275      8278      8277      8275      8278      8278      8280      8281
      8278      8280      8282      8279      8278      8280      8280      8282      8283
      8280      8282      8284      8280      8282      8285      8281      8280      8282
      8282      8285      8286      8282      8285      8287      8283      8282      8284
      8283      8282      8285      8284      8282      8285      8285      8287      8288
      8285      8287      8289      8286      8285      8287      8287      8289      8290
      8287      8289      8291      8287      8289      8292      8288      8287      8289
      8289      8292      8293      8289      8292      8294      8289      8292      8295
      8290      8289      8291      8290      8289      8292      8291      8289      8292
      8292      8295      8296      8292      8295      8297      8292      8295      8298
      8293      8292      8294      8293      8292      8295      8294      8292      8295
      8295      8298      8299      8295      8298      8300      8295      8298      8301
      8296      8295      8297      8296      8295      8298      8297      8295      8298
      8298      8301      8302      8298      8301      8303      8298      8301      8304
      8299      8298      8300      8299      8298      8301      8300      8298      8301
      8302      8301      8303      8302      8301      8304      8303      8301      8304
      8305      8308      8309      8305      8308      8310      8305      8308      8311
      8306      8305      8307      8306      8305      8308      8307      8305      8308
      8308      8311      8312      8308      8311      8313      8308      8311      8314
      8309      8308      8310      8309      8308      8311      8310      8308      8311
      8311      8314      8315      8311      8314      8316      8311      8314      8317
      8312      8311      8313      8312      8311      8314      8313      8311      8314
      8314      8317      8318      8314      8317      8319      8314      8317      8320
      8315      8314      8316      8315      8314      8317      8316      8314      8317
      8317      8320      8321      8317      8320      8322      8317      8320      8323
      8318      8317      8319      8318      8317      8320      8319      8317      8320
      8320      8323      8324      8320      8323      8325      8320      8323      8326
      8321      8320      8322      8321      8320      8323      8322      8320      8323
      8323      8326      8327      8323      8326      8328      8323      8326      8329
      8324      8323      8325      8324      8323      8326      8325      8323      8326
      8326      8329      8330      8326      8329      8331      8326      8329      8332
      8327      8326      8328      8327      8326      8329      8328      8326      8329
      8329      8332      8333      8329      8332      8334      8329      8332      8335
      8330      8329      8331      8330      8329      8332      8331      8329      8332
      8332      8335      8336      8332      8335      8337      8332      8335      8338
      8333      8332      8334      8333      8332      8335      8334      8332      8335
      8335      8338      8339      8335      8338      8340      8335      8338      8341
      8336      8335      8337      8336      8335      8338      8337      8335      8338
      8338      8341      8342      8338      8341      8343      8338      8341      8344
      8339      8338      8340      8339      8338      8341      8340      8338      8341
      8341      8344      8345      8341      8344      8346      8341      8344      8347
      8342      8341      8343      8342      8341      8344      8343      8341      8344
      8344      8347      8348      8344      8347      8349      8344      8347      8350
      8345      8344      8346      8345      8344      8347      8346      8344      8347
      8347      8350      8351      8347      8350      8352      8347      8350      8353
      8348      8347      8349      8348      8347      8350      8349      8347      8350
      8351      8350      8352      8351      8350      8353      8352      8350      8353
      8354      8355      8356      8354      8355      8357      8354      8355      8358
      8354      8359      8360      8354      8359      8361      8354      8359      8362
      8354      8363      8364      8354      8363      8365      8354      8363      8366
      8354      8367      8368      8354      8367      8369      8354      8367      8370
      8355      8354      8359      8355      8354      8363      8355      8354      8367
      8356      8355      8357      8356      8355      8358      8357      8355      8358
      8359      8354      8363      8359      8354      8367      8360      8359      8361
      8360      8359      8362      8361      8359      8362      8363      8354      8367
      8364      8363      8365      8364      8363      8366      8365      8363      8366
      8367      8370      8371      8367      8370      8372      8367      8370      8377
      8368      8367      8369      8368      8367      8370      8369      8367      8370
      8370      8377      8373      8371      8370      8372      8371      8370      8377
      8372      8370      8377      8373      8376      8378      8374      8373      8375
      8374      8373      8376      8374      8373      8377      8375      8373      8376
      8375      8373      8377      8376      8373      8377      8376      8378      8379
      8376      8378      8380      8376      8378      8383      8378      8383      8381
      8378      8383      8384      8378      8383      8385      8379      8378      8380
      8379      8378      8383      8380      8378      8383      8381      8383      8384
      8381      8383      8385      8381      8433      8434      8381      8433      8435
      8382      8381      8383      8382      8381      8433      8383      8381      8433
      8383      8385      8386      8383      8385      8387      8383      8385      8389
      8384      8383      8385      8385      8387      8388      8385      8389      8390
      8385      8389      8391      8386      8385      8387      8386      8385      8389
      8387      8385      8389      8389      8391      8392      8389      8391      8393
      8390      8389      8391      8391      8393      8394      8391      8393      8395
      8391      8393      8396      8392      8391      8393      8393      8396      8397
      8393      8396      8398      8393      8396      8399      8394      8393      8395
      8394      8393      8396      8395      8393      8396      8396      8399      8400
      8396      8399      8401      8396      8399      8402      8397      8396      8398
      8397      8396      8399      8398      8396      8399      8399      8402      8403
      8399      8402      8404      8399      8402      8405      8400      8399      8401
      8400      8399      8402      8401      8399      8402      8402      8405      8406
      8402      8405      8407      8402      8405      8408      8403      8402      8404
      8403      8402      8405      8404      8402      8405      8405      8408      8409
      8405      8408      8410      8405      8408      8411      8406      8405      8407
      8406      8405      8408      8407      8405      8408      8408      8411      8412
      8408      8411      8413      8408      8411      8414      8409      8408      8410
      8409      8408      8411      8410      8408      8411      8411      8414      8415
      8411      8414      8416      8411      8414      8417      8412      8411      8413
      8412      8411      8414      8413      8411      8414      8414      8417      8418
      8414      8417      8419      8414      8417      8420      8415      8414      8416
      8415      8414      8417      8416      8414      8417      8417      8420      8421
      8417      8420      8422      8417      8420      8423      8418      8417      8419
      8418      8417      8420      8419      8417      8420      8420      8423      8424
      8420      8423      8425      8420      8423      8426      8421      8420      8422
      8421      8420      8423      8422      8420      8423      8423      8426      8427
      8423      8426      8428      8423      8426      8429      8424      8423      8425
      8424      8423      8426      8425      8423      8426      8426      8429      8430
      8426      8429      8431      8426      8429      8432      8427      8426      8428
      8427      8426      8429      8428      8426      8429      8430      8429      8431
      8430      8429      8432      8431      8429      8432      8433      8435      8436
      8433      8435      8437      8433      8435      8438      8434      8433      8435
      8435      8438      8439      8435      8438      8440      8435      8438      8441
      8436      8435      8437      8436      8435      8438      8437      8435      8438
      8438      8441      8442      8438      8441      8443      8438      8441      8444
      8439      8438      8440      8439      8438      8441      8440      8438      8441
      8441      8444      8445      8441      8444      8446      8441      8444      8447
      8442      8441      8443      8442      8441      8444      8443      8441      8444
      8444      8447      8448      8444      8447      8449      8444      8447      8450
      8445      8444      8446      8445      8444      8447      8446      8444      8447
      8447      8450      8451      8447      8450      8452      8447      8450      8453
      8448      8447      8449      8448      8447      8450      8449      8447      8450
      8450      8453      8454      8450      8453      8455      8450      8453      8456
      8451      8450      8452      8451      8450      8453      8452      8450      8453
      8453      8456      8457      8453      8456      8458      8454      8453      8455
      8454      8453      8456      8455      8453      8456      8456      8458      8459
      8456      8458      8460      8457      8456      8458      8458      8460      8461
      8458      8460      8462      8458      8460      8463      8459      8458      8460
      8460      8463      8464      8460      8463      8465      8460      8463      8466
      8461      8460      8462      8461      8460      8463      8462      8460      8463
      8463      8466      8467      8463      8466      8468      8463      8466      8469
      8464      8463      8465      8464      8463      8466      8465      8463      8466
      8466      8469      8470      8466      8469      8471      8466      8469      8472
      8467      8466      8468      8467      8466      8469      8468      8466      8469
      8469      8472      8473      8469      8472      8474      8469      8472      8475
      8470      8469      8471      8470      8469      8472      8471      8469      8472
      8472      8475      8476      8472      8475      8477      8472      8475      8478
      8473      8472      8474      8473      8472      8475      8474      8472      8475
      8475      8478      8479      8475      8478      8480      8475      8478      8481
      8476      8475      8477      8476      8475      8478      8477      8475      8478
      8478      8481      8482      8478      8481      8483      8478      8481      8484
      8479      8478      8480      8479      8478      8481      8480      8478      8481
      8482      8481      8483      8482      8481      8484      8483      8481      8484
      8485      8487      8488      8485      8489      8490      8485      8489      8491
      8485      8489      8492      8485      8531      8528      8485      8531      8532
      8485      8531      8533      8486      8485      8487      8486      8485      8489
      8486      8485      8531      8487      8485      8489      8487      8485      8531
      8489      8485      8531      8489      8492      8493      8489      8492      8523
      8490      8489      8491      8490      8489      8492      8491      8489      8492
      8492      8493      8494      8492      8493      8495      8492      8523      8521
      8492      8523      8524      8492      8523      8528      8493      8492      8523
      8493      8495      8496      8493      8495      8497      8493      8495      8498
      8494      8493      8495      8495      8498      8499      8495      8498      8500
      8495      8498      8521      8496      8495      8497      8496      8495      8498
      8497      8495      8498      8498      8500      8501      8498      8500      8502
      8498      8500      8510      8498      8521      8518      8498      8521      8522
      8498      8521      8523      8499      8498      8500      8499      8498      8521
      8500      8498      8521      8500      8502      8503      8500      8502      8504
      8500      8502      8505      8500      8510      8508      8500      8510      8511
      8500      8510      8515      8501      8500      8502      8501      8500      8510
      8502      8500      8510      8502      8505      8506      8502      8505      8507
      8502      8505      8508      8503      8502      8504      8503      8502      8505
      8504      8502      8505      8505      8508      8509      8505      8508      8510
      8505      8508      8534      8506      8505      8507      8506      8505      8508
      8507      8505      8508      8508      8510      8511      8508      8510      8515
      8508      8534      8535      8508      8534      8536      8508      8534      8540
      8509      8508      8510      8509      8508      8534      8510      8508      8534
      8510      8511      8512      8510      8511      8513      8510      8511      8514
      8510      8515      8516      8510      8515      8517      8510      8515      8518
      8511      8510      8515      8512      8511      8513      8512      8511      8514
      8513      8511      8514      8515      8518      8519      8515      8518      8520
      8515      8518      8521      8516      8515      8517      8516      8515      8518
      8517      8515      8518      8518      8521      8522      8518      8521      8523
      8519      8518      8520      8519      8518      8521      8520      8518      8521
      8521      8523      8524      8521      8523      8528      8522      8521      8523
      8523      8524      8525      8523      8524      8526      8523      8524      8527
      8523      8528      8529      8523      8528      8530      8523      8528      8531
      8524      8523      8528      8525      8524      8526      8525      8524      8527
      8526      8524      8527      8528      8531      8532      8528      8531      8533
      8529      8528      8530      8529      8528      8531      8530      8528      8531
      8532      8531      8533      8534      8536      8537      8534      8536      8538
      8534      8536      8539      8534      8540      8541      8534      8540      8542
      8534      8540      8543      8535      8534      8536      8535      8534      8540
      8536      8534      8540      8537      8536      8538      8537      8536      8539
      8538      8536      8539      8540      8543      8544      8540      8543      8545
      8540      8543      8546      8541      8540      8542      8541      8540      8543
      8542      8540      8543      8543      8546      8547      8543      8546      8548
      8543      8546      8549      8544      8543      8545      8544      8543      8546
      8545      8543      8546      8546      8549      8550      8546      8549      8551
      8546      8549      8555      8547      8546      8548      8547      8546      8549
      8548      8546      8549      8549      8551      8552      8549      8551      8553
      8549      8551      8554      8549      8555      8556      8549      8555      8557
      8549      8555      8558      8550      8549      8551      8550      8549      8555
      8551      8549      8555      8552      8551      8553      8552      8551      8554
      8553      8551      8554      8556      8555      8557      8556      8555      8558
      8557      8555      8558      8559      8560      8561      8559      8560      8562
      8559      8560      8575      8559      8563      8564      8559      8563      8565
      8559      8563      8566      8559      8567      8568      8559      8567      8569
      8559      8567      8570      8559      8571      8572      8559      8571      8573
      8559      8571      8574      8560      8559      8563      8560      8559      8567
      8560      8559      8571      8560      8575      8576      8560      8575      8577
      8560      8575      8581      8561      8560      8562      8561      8560      8575
      8562      8560      8575      8563      8559      8567      8563      8559      8571
      8564      8563      8565      8564      8563      8566      8565      8563      8566
      8567      8559      8571      8568      8567      8569      8568      8567      8570
      8569      8567      8570      8572      8571      8573      8572      8571      8574
      8573      8571      8574      8575      8581      8578      8576      8575      8577
      8576      8575      8581      8577      8575      8581      8578      8582      8583
      8579      8578      8580      8579      8578      8581      8579      8578      8582
      8580      8578      8581      8580      8578      8582      8581      8578      8582
      8582      8583      8584      8582      8583      8585      8582      8583      8586
      8583      8586      8587      8583      8586      8588      8583      8586      8594
      8584      8583      8585      8584      8583      8586      8585      8583      8586
      8586      8588      8589      8586      8594      8595      8586      8594      8596
      8586      8594      8597      8587      8586      8588      8587      8586      8594
      8588      8586      8594      8588      8589      8590      8588      8589      8591
      8589      8591      8592      8589      8591      8593      8589      8591      8603
      8590      8589      8591      8591      8603      8604      8591      8603      8605
      8591      8603      8606      8592      8591      8593      8592      8591      8603
      8593      8591      8603      8594      8597      8598      8595      8594      8596
      8595      8594      8597      8596      8594      8597      8597      8598      8599
      8597      8598      8600      8598      8600      8601      8598      8600      8602
      8598      8600      8650      8599      8598      8600      8600      8650      8651
      8600      8650      8652      8600      8650      8653      8601      8600      8602
      8601      8600      8650      8602      8600      8650      8603      8606      8607
      8603      8606      8608      8603      8606      8609      8604      8603      8605
      8604      8603      8606      8605      8603      8606      8606      8609      8610
      8606      8609      8611      8607      8606      8608      8607      8606      8609
      8608      8606      8609      8609      8611      8612      8609      8611      8613
      8610      8609      8611      8611      8613      8614      8611      8613      8615
      8611      8613      8616      8612      8611      8613      8613      8616      8617
      8613      8616      8618      8614      8613      8615      8614      8613      8616
      8615      8613      8616      8616      8618      8619      8616      8618      8620
      8617      8616      8618      8618      8620      8621      8618      8620      8622
      8618      8620      8623      8619      8618      8620      8620      8623      8624
      8620      8623      8625      8621      8620      8622      8621      8620      8623
      8622      8620      8623      8623      8625      8626      8623      8625      8627
      8624      8623      8625      8625      8627      8628      8625      8627      8629
      8625      8627      8630      8626      8625      8627      8627      8630      8631
      8627      8630      8632      8628      8627      8629      8628      8627      8630
      8629      8627      8630      8630      8632      8633      8630      8632      8634
      8631      8630      8632      8632      8634      8635      8632      8634      8636
      8632      8634      8637      8633      8632      8634      8634      8637      8638
      8634      8637      8639      8634      8637      8640      8635      8634      8636
      8635      8634      8637      8636      8634      8637      8637      8640      8641
      8637      8640      8642      8637      8640      8643      8638      8637      8639
      8638      8637      8640      8639      8637      8640      8640      8643      8644
      8640      8643      8645      8640      8643      8646      8641      8640      8642
      8641      8640      8643      8642      8640      8643      8643      8646      8647
      8643      8646      8648      8643      8646      8649      8644      8643      8645
      8644      8643      8646      8645      8643      8646      8647      8646      8648
      8647      8646      8649      8648      8646      8649      8650      8653      8654
      8650      8653      8655      8650      8653      8656      8651      8650      8652
      8651      8650      8653      8652      8650      8653      8653      8656      8657
      8653      8656      8658      8653      8656      8659      8654      8653      8655
      8654      8653      8656      8655      8653      8656      8656      8659      8660
      8656      8659      8661      8656      8659      8662      8657      8656      8658
      8657      8656      8659      8658      8656      8659      8659      8662      8663
      8659      8662      8664      8659      8662      8665      8660      8659      8661
      8660      8659      8662      8661      8659      8662      8662      8665      8666
      8662      8665      8667      8662      8665      8668      8663      8662      8664
      8663      8662      8665      8664      8662      8665      8665      8668      8669
      8665      8668      8670      8665      8668      8671      8666      8665      8667
      8666      8665      8668      8667      8665      8668      8668      8671      8672
      8668      8671      8673      8668      8671      8674      8669      8668      8670
      8669      8668      8671      8670      8668      8671      8671      8674      8675
      8671      8674      8676      8671      8674      8677      8672      8671      8673
      8672      8671      8674      8673      8671      8674      8674      8677      8678
      8674      8677      8679      8674      8677      8680      8675      8674      8676
      8675      8674      8677      8676      8674      8677      8677      8680      8681
      8677      8680      8682      8677      8680      8683      8678      8677      8679
      8678      8677      8680      8679      8677      8680      8680      8683      8684
      8680      8683      8685      8680      8683      8686      8681      8680      8682
      8681      8680      8683      8682      8680      8683      8683      8686      8687
      8683      8686      8688      8683      8686      8689      8684      8683      8685
      8684      8683      8686      8685      8683      8686      8686      8689      8690
      8686      8689      8691      8686      8689      8692      8687      8686      8688
      8687      8686      8689      8688      8686      8689      8689      8692      8693
      8689      8692      8694      8689      8692      8695      8690      8689      8691
      8690      8689      8692      8691      8689      8692      8692      8695      8696
      8692      8695      8697      8692      8695      8698      8693      8692      8694
      8693      8692      8695      8694      8692      8695      8696      8695      8697
      8696      8695      8698      8697      8695      8698      8699      8700      8701
      8699      8700      8702      8699      8700      8703      8699      8704      8705
      8699      8704      8706      8699      8704      8707      8699      8708      8709
      8699      8708      8710      8699      8708      8711      8699      8712      8713
      8699      8712      8714      8699      8712      8715      8700      8699      8704
      8700      8699      8708      8700      8699      8712      8701      8700      8702
      8701      8700      8703      8702      8700      8703      8704      8699      8708
      8704      8699      8712      8705      8704      8706      8705      8704      8707
      8706      8704      8707      8708      8699      8712      8709      8708      8710
      8709      8708      8711      8710      8708      8711      8712      8715      8716
      8712      8715      8717      8712      8715      8722      8713      8712      8714
      8713      8712      8715      8714      8712      8715      8715      8722      8718
      8716      8715      8717      8716      8715      8722      8717      8715      8722
      8718      8721      8723      8719      8718      8720      8719      8718      8721
      8719      8718      8722      8720      8718      8721      8720      8718      8722
      8721      8718      8722      8721      8723      8724      8721      8723      8725
      8721      8723      8728      8723      8728      8726      8723      8728      8729
      8723      8728      8730      8724      8723      8725      8724      8723      8728
      8725      8723      8728      8726      8728      8729      8726      8728      8730
      8726      8778      8779      8726      8778      8780      8727      8726      8728
      8727      8726      8778      8728      8726      8778      8728      8730      8731
      8728      8730      8732      8728      8730      8734      8729      8728      8730
      8730      8732      8733      8730      8734      8735      8730      8734      8736
      8731      8730      8732      8731      8730      8734      8732      8730      8734
      8734      8736      8737      8734      8736      8738      8735      8734      8736
      8736      8738      8739      8736      8738      8740      8736      8738      8741
      8737      8736      8738      8738      8741      8742      8738      8741      8743
      8738      8741      8744      8739      8738      8740      8739      8738      8741
      8740      8738      8741      8741      8744      8745      8741      8744      8746
      8741      8744      8747      8742      8741      8743      8742      8741      8744
      8743      8741      8744      8744      8747      8748      8744      8747      8749
      8744      8747      8750      8745      8744      8746      8745      8744      8747
      8746      8744      8747      8747      8750      8751      8747      8750      8752
      8747      8750      8753      8748      8747      8749      8748      8747      8750
      8749      8747      8750      8750      8753      8754      8750      8753      8755
      8750      8753      8756      8751      8750      8752      8751      8750      8753
      8752      8750      8753      8753      8756      8757      8753      8756      8758
      8753      8756      8759      8754      8753      8755      8754      8753      8756
      8755      8753      8756      8756      8759      8760      8756      8759      8761
      8756      8759      8762      8757      8756      8758      8757      8756      8759
      8758      8756      8759      8759      8762      8763      8759      8762      8764
      8759      8762      8765      8760      8759      8761      8760      8759      8762
      8761      8759      8762      8762      8765      8766      8762      8765      8767
      8762      8765      8768      8763      8762      8764      8763      8762      8765
      8764      8762      8765      8765      8768      8769      8765      8768      8770
      8765      8768      8771      8766      8765      8767      8766      8765      8768
      8767      8765      8768      8768      8771      8772      8768      8771      8773
      8768      8771      8774      8769      8768      8770      8769      8768      8771
      8770      8768      8771      8771      8774      8775      8771      8774      8776
      8771      8774      8777      8772      8771      8773      8772      8771      8774
      8773      8771      8774      8775      8774      8776      8775      8774      8777
      8776      8774      8777      8778      8780      8781      8778      8780      8782
      8778      8780      8783      8779      8778      8780      8780      8783      8784
      8780      8783      8785      8780      8783      8786      8781      8780      8782
      8781      8780      8783      8782      8780      8783      8783      8786      8787
      8783      8786      8788      8783      8786      8789      8784      8783      8785
      8784      8783      8786      8785      8783      8786      8786      8789      8790
      8786      8789      8791      8786      8789      8792      8787      8786      8788
      8787      8786      8789      8788      8786      8789      8789      8792      8793
      8789      8792      8794      8789      8792      8795      8790      8789      8791
      8790      8789      8792      8791      8789      8792      8792      8795      8796
      8792      8795      8797      8792      8795      8798      8793      8792      8794
      8793      8792      8795      8794      8792      8795      8795      8798      8799
      8795      8798      8800      8795      8798      8801      8796      8795      8797
      8796      8795      8798      8797      8795      8798      8798      8801      8802
      8798      8801      8803      8799      8798      8800      8799      8798      8801
      8800      8798      8801      8801      8803      8804      8801      8803      8805
      8802      8801      8803      8803      8805      8806      8803      8805      8807
      8803      8805      8808      8804      8803      8805      8805      8808      8809
      8805      8808      8810      8805      8808      8811      8806      8805      8807
      8806      8805      8808      8807      8805      8808      8808      8811      8812
      8808      8811      8813      8808      8811      8814      8809      8808      8810
      8809      8808      8811      8810      8808      8811      8811      8814      8815
      8811      8814      8816      8811      8814      8817      8812      8811      8813
      8812      8811      8814      8813      8811      8814      8814      8817      8818
      8814      8817      8819      8814      8817      8820      8815      8814      8816
      8815      8814      8817      8816      8814      8817      8817      8820      8821
      8817      8820      8822      8817      8820      8823      8818      8817      8819
      8818      8817      8820      8819      8817      8820      8820      8823      8824
      8820      8823      8825      8820      8823      8826      8821      8820      8822
      8821      8820      8823      8822      8820      8823      8823      8826      8827
      8823      8826      8828      8823      8826      8829      8824      8823      8825
      8824      8823      8826      8825      8823      8826      8827      8826      8828
      8827      8826      8829      8828      8826      8829      8830      8834      8835
      8830      8834      8836      8830      8834      8839      8831      8830      8832
      8831      8830      8833      8831      8830      8834      8832      8830      8833
      8832      8830      8834      8833      8830      8834      8834      8836      8837
      8834      8836      8838      8834      8839      8840      8834      8839      8841
      8834      8839      8845      8835      8834      8836      8835      8834      8839
      8836      8834      8839      8837      8836      8838      8839      8845      8842
      8840      8839      8841      8840      8839      8845      8841      8839      8845
      8842      8846      8847      8843      8842      8844      8843      8842      8845
      8843      8842      8846      8844      8842      8845      8844      8842      8846
      8845      8842      8846      8846      8847      8848      8846      8847      8849
      8846      8847      8850      8847      8850      8851      8847      8850      8852
      8847      8850      8858      8848      8847      8849      8848      8847      8850
      8849      8847      8850      8850      8852      8853      8850      8858      8859
      8850      8858      8860      8850      8858      8861      8851      8850      8852
      8851      8850      8858      8852      8850      8858      8852      8853      8854
      8852      8853      8855      8853      8855      8856      8853      8855      8857
      8853      8855      8867      8854      8853      8855      8855      8867      8868
      8855      8867      8869      8855      8867      8870      8856      8855      8857
      8856      8855      8867      8857      8855      8867      8858      8861      8862
      8859      8858      8860      8859      8858      8861      8860      8858      8861
      8861      8862      8863      8861      8862      8864      8862      8864      8865
      8862      8864      8866      8862      8864      8914      8863      8862      8864
      8864      8914      8915      8864      8914      8916      8864      8914      8917
      8865      8864      8866      8865      8864      8914      8866      8864      8914
      8867      8870      8871      8867      8870      8872      8867      8870      8873
      8868      8867      8869      8868      8867      8870      8869      8867      8870
      8870      8873      8874      8870      8873      8875      8871      8870      8872
      8871      8870      8873      8872      8870      8873      8873      8875      8876
      8873      8875      8877      8874      8873      8875      8875      8877      8878
      8875      8877      8879      8875      8877      8880      8876      8875      8877
      8877      8880      8881      8877      8880      8882      8878      8877      8879
      8878      8877      8880      8879      8877      8880      8880      8882      8883
      8880      8882      8884      8881      8880      8882      8882      8884      8885
      8882      8884      8886      8882      8884      8887      8883      8882      8884
      8884      8887      8888      8884      8887      8889      8885      8884      8886
      8885      8884      8887      8886      8884      8887      8887      8889      8890
      8887      8889      8891      8888      8887      8889      8889      8891      8892
      8889      8891      8893      8889      8891      8894      8890      8889      8891
      8891      8894      8895      8891      8894      8896      8892      8891      8893
      8892      8891      8894      8893      8891      8894      8894      8896      8897
      8894      8896      8898      8895      8894      8896      8896      8898      8899
      8896      8898      8900      8896      8898      8901      8897      8896      8898
      8898      8901      8902      8898      8901      8903      8898      8901      8904
      8899      8898      8900      8899      8898      8901      8900      8898      8901
      8901      8904      8905      8901      8904      8906      8901      8904      8907
      8902      8901      8903      8902      8901      8904      8903      8901      8904
      8904      8907      8908      8904      8907      8909      8904      8907      8910
      8905      8904      8906      8905      8904      8907      8906      8904      8907
      8907      8910      8911      8907      8910      8912      8907      8910      8913
      8908      8907      8909      8908      8907      8910      8909      8907      8910
      8911      8910      8912      8911      8910      8913      8912      8910      8913
      8914      8917      8918      8914      8917      8919      8914      8917      8920
      8915      8914      8916      8915      8914      8917      8916      8914      8917
      8917      8920      8921      8917      8920      8922      8917      8920      8923
      8918      8917      8919      8918      8917      8920      8919      8917      8920
      8920      8923      8924      8920      8923      8925      8920      8923      8926
      8921      8920      8922      8921      8920      8923      8922      8920      8923
      8923      8926      8927      8923      8926      8928      8923      8926      8929
      8924      8923      8925      8924      8923      8926      8925      8923      8926
      8926      8929      8930      8926      8929      8931      8926      8929      8932
      8927      8926      8928      8927      8926      8929      8928      8926      8929
      8929      8932      8933      8929      8932      8934      8929      8932      8935
      8930      8929      8931      8930      8929      8932      8931      8929      8932
      8932      8935      8936      8932      8935      8937      8932      8935      8938
      8933      8932      8934      8933      8932      8935      8934      8932      8935
      8935      8938      8939      8935      8938      8940      8935      8938      8941
      8936      8935      8937      8936      8935      8938      8937      8935      8938
      8938      8941      8942      8938      8941      8943      8938      8941      8944
      8939      8938      8940      8939      8938      8941      8940      8938      8941
      8941      8944      8945      8941      8944      8946      8941      8944      8947
      8942      8941      8943      8942      8941      8944      8943      8941      8944
      8944      8947      8948      8944      8947      8949      8944      8947      8950
      8945      8944      8946      8945      8944      8947      8946      8944      8947
      8947      8950      8951      8947      8950      8952      8947      8950      8953
      8948      8947      8949      8948      8947      8950      8949      8947      8950
      8950      8953      8954      8950      8953      8955      8950      8953      8956
      8951      8950      8952      8951      8950      8953      8952      8950      8953
      8953      8956      8957      8953      8956      8958      8953      8956      8959
      8954      8953      8955      8954      8953      8956      8955      8953      8956
      8956      8959      8960      8956      8959      8961      8956      8959      8962
      8957      8956      8958      8957      8956      8959      8958      8956      8959
      8960      8959      8961      8960      8959      8962      8961      8959      8962
      8963      8967      8968      8963      8967      8969      8963      8967      8972
      8964      8963      8965      8964      8963      8966      8964      8963      8967
      8965      8963      8966      8965      8963      8967      8966      8963      8967
      8967      8969      8970      8967      8969      8971      8967      8972      8973
      8967      8972      8974      8967      8972      8978      8968      8967      8969
      8968      8967      8972      8969      8967      8972      8970      8969      8971
      8972      8978      8975      8973      8972      8974      8973      8972      8978
      8974      8972      8978      8975      8979      8980      8976      8975      8977
      8976      8975      8978      8976      8975      8979      8977      8975      8978
      8977      8975      8979      8978      8975      8979      8979      8980      8981
      8979      8980      8982      8979      8980      8983      8980      8983      8984
      8980      8983      8985      8980      8983      8991      8981      8980      8982
      8981      8980      8983      8982      8980      8983      8983      8985      8986
      8983      8991      8992      8983      8991      8993      8983      8991      8994
      8984      8983      8985      8984      8983      8991      8985      8983      8991
      8985      8986      8987      8985      8986      8988      8986      8988      8989
      8986      8988      8990      8986      8988      9000      8987      8986      8988
      8988      9000      9001      8988      9000      9002      8988      9000      9003
      8989      8988      8990      8989      8988      9000      8990      8988      9000
      8991      8994      8995      8992      8991      8993      8992      8991      8994
      8993      8991      8994      8994      8995      8996      8994      8995      8997
      8995      8997      8998      8995      8997      8999      8995      8997      9047
      8996      8995      8997      8997      9047      9048      8997      9047      9049
      8997      9047      9050      8998      8997      8999      8998      8997      9047
      8999      8997      9047      9000      9003      9004      9000      9003      9005
      9000      9003      9006      9001      9000      9002      9001      9000      9003
      9002      9000      9003      9003      9006      9007      9003      9006      9008
      9004      9003      9005      9004      9003      9006      9005      9003      9006
      9006      9008      9009      9006      9008      9010      9007      9006      9008
      9008      9010      9011      9008      9010      9012      9008      9010      9013
      9009      9008      9010      9010      9013      9014      9010      9013      9015
      9011      9010      9012      9011      9010      9013      9012      9010      9013
      9013      9015      9016      9013      9015      9017      9014      9013      9015
      9015      9017      9018      9015      9017      9019      9015      9017      9020
      9016      9015      9017      9017      9020      9021      9017      9020      9022
      9018      9017      9019      9018      9017      9020      9019      9017      9020
      9020      9022      9023      9020      9022      9024      9021      9020      9022
      9022      9024      9025      9022      9024      9026      9022      9024      9027
      9023      9022      9024      9024      9027      9028      9024      9027      9029
      9025      9024      9026      9025      9024      9027      9026      9024      9027
      9027      9029      9030      9027      9029      9031      9028      9027      9029
      9029      9031      9032      9029      9031      9033      9029      9031      9034
      9030      9029      9031      9031      9034      9035      9031      9034      9036
      9031      9034      9037      9032      9031      9033      9032      9031      9034
      9033      9031      9034      9034      9037      9038      9034      9037      9039
      9034      9037      9040      9035      9034      9036      9035      9034      9037
      9036      9034      9037      9037      9040      9041      9037      9040      9042
      9037      9040      9043      9038      9037      9039      9038      9037      9040
      9039      9037      9040      9040      9043      9044      9040      9043      9045
      9040      9043      9046      9041      9040      9042      9041      9040      9043
      9042      9040      9043      9044      9043      9045      9044      9043      9046
      9045      9043      9046      9047      9050      9051      9047      9050      9052
      9047      9050      9053      9048      9047      9049      9048      9047      9050
      9049      9047      9050      9050      9053      9054      9050      9053      9055
      9050      9053      9056      9051      9050      9052      9051      9050      9053
      9052      9050      9053      9053      9056      9057      9053      9056      9058
      9053      9056      9059      9054      9053      9055      9054      9053      9056
      9055      9053      9056      9056      9059      9060      9056      9059      9061
      9056      9059      9062      9057      9056      9058      9057      9056      9059
      9058      9056      9059      9059      9062      9063      9059      9062      9064
      9059      9062      9065      9060      9059      9061      9060      9059      9062
      9061      9059      9062      9062      9065      9066      9062      9065      9067
      9062      9065      9068      9063      9062      9064      9063      9062      9065
      9064      9062      9065      9065      9068      9069      9065      9068      9070
      9065      9068      9071      9066      9065      9067      9066      9065      9068
      9067      9065      9068      9068      9071      9072      9068      9071      9073
      9068      9071      9074      9069      9068      9070      9069      9068      9071
      9070      9068      9071      9071      9074      9075      9071      9074      9076
      9071      9074      9077      9072      9071      9073      9072      9071      9074
      9073      9071      9074      9074      9077      9078      9074      9077      9079
      9074      9077      9080      9075      9074      9076      9075      9074      9077
      9076      9074      9077      9077      9080      9081      9077      9080      9082
      9077      9080      9083      9078      9077      9079      9078      9077      9080
      9079      9077      9080      9080      9083      9084      9080      9083      9085
      9080      9083      9086      9081      9080      9082      9081      9080      9083
      9082      9080      9083      9083      9086      9087      9083      9086      9088
      9083      9086      9089      9084      9083      9085      9084      9083      9086
      9085      9083      9086      9086      9089      9090      9086      9089      9091
      9086      9089      9092      9087      9086      9088      9087      9086      9089
      9088      9086      9089      9089      9092      9093      9089      9092      9094
      9089      9092      9095      9090      9089      9091      9090      9089      9092
      9091      9089      9092      9093      9092      9094      9093      9092      9095
      9094      9092      9095      9096      9098      9099      9096      9100      9101
      9096      9100      9102      9096      9100      9103      9096      9142      9139
      9096      9142      9143      9096      9142      9144      9097      9096      9098
      9097      9096      9100      9097      9096      9142      9098      9096      9100
      9098      9096      9142      9100      9096      9142      9100      9103      9104
      9100      9103      9134      9101      9100      9102      9101      9100      9103
      9102      9100      9103      9103      9104      9105      9103      9104      9106
      9103      9134      9132      9103      9134      9135      9103      9134      9139
      9104      9103      9134      9104      9106      9107      9104      9106      9108
      9104      9106      9109      9105      9104      9106      9106      9109      9110
      9106      9109      9111      9106      9109      9132      9107      9106      9108
      9107      9106      9109      9108      9106      9109      9109      9111      9112
      9109      9111      9113      9109      9111      9121      9109      9132      9129
      9109      9132      9133      9109      9132      9134      9110      9109      9111
      9110      9109      9132      9111      9109      9132      9111      9113      9114
      9111      9113      9115      9111      9113      9116      9111      9121      9119
      9111      9121      9122      9111      9121      9126      9112      9111      9113
      9112      9111      9121      9113      9111      9121      9113      9116      9117
      9113      9116      9118      9113      9116      9119      9114      9113      9115
      9114      9113      9116      9115      9113      9116      9116      9119      9120
      9116      9119      9121      9116      9119      9145      9117      9116      9118
      9117      9116      9119      9118      9116      9119      9119      9121      9122
      9119      9121      9126      9119      9145      9146      9119      9145      9147
      9119      9145      9151      9120      9119      9121      9120      9119      9145
      9121      9119      9145      9121      9122      9123      9121      9122      9124
      9121      9122      9125      9121      9126      9127      9121      9126      9128
      9121      9126      9129      9122      9121      9126      9123      9122      9124
      9123      9122      9125      9124      9122      9125      9126      9129      9130
      9126      9129      9131      9126      9129      9132      9127      9126      9128
      9127      9126      9129      9128      9126      9129      9129      9132      9133
      9129      9132      9134      9130      9129      9131      9130      9129      9132
      9131      9129      9132      9132      9134      9135      9132      9134      9139
      9133      9132      9134      9134      9135      9136      9134      9135      9137
      9134      9135      9138      9134      9139      9140      9134      9139      9141
      9134      9139      9142      9135      9134      9139      9136      9135      9137
      9136      9135      9138      9137      9135      9138      9139      9142      9143
      9139      9142      9144      9140      9139      9141      9140      9139      9142
      9141      9139      9142      9143      9142      9144      9145      9147      9148
      9145      9147      9149      9145      9147      9150      9145      9151      9152
      9145      9151      9153      9145      9151      9154      9146      9145      9147
      9146      9145      9151      9147      9145      9151      9148      9147      9149
      9148      9147      9150      9149      9147      9150      9151      9154      9155
      9151      9154      9156      9151      9154      9157      9152      9151      9153
      9152      9151      9154      9153      9151      9154      9154      9157      9158
      9154      9157      9159      9154      9157      9160      9155      9154      9156
      9155      9154      9157      9156      9154      9157      9157      9160      9161
      9157      9160      9162      9157      9160      9166      9158      9157      9159
      9158      9157      9160      9159      9157      9160      9160      9162      9163
      9160      9162      9164      9160      9162      9165      9160      9166      9167
      9160      9166      9168      9160      9166      9169      9161      9160      9162
      9161      9160      9166      9162      9160      9166      9163      9162      9164
      9163      9162      9165      9164      9162      9165      9167      9166      9168
      9167      9166      9169      9168      9166      9169      9170      9172      9173
      9170      9174      9175      9170      9174      9176      9170      9174      9177
      9170      9216      9213      9170      9216      9217      9170      9216      9218
      9171      9170      9172      9171      9170      9174      9171      9170      9216
      9172      9170      9174      9172      9170      9216      9174      9170      9216
      9174      9177      9178      9174      9177      9208      9175      9174      9176
      9175      9174      9177      9176      9174      9177      9177      9178      9179
      9177      9178      9180      9177      9208      9206      9177      9208      9209
      9177      9208      9213      9178      9177      9208      9178      9180      9181
      9178      9180      9182      9178      9180      9183      9179      9178      9180
      9180      9183      9184      9180      9183      9185      9180      9183      9206
      9181      9180      9182      9181      9180      9183      9182      9180      9183
      9183      9185      9186      9183      9185      9187      9183      9185      9195
      9183      9206      9203      9183      9206      9207      9183      9206      9208
      9184      9183      9185      9184      9183      9206      9185      9183      9206
      9185      9187      9188      9185      9187      9189      9185      9187      9190
      9185      9195      9193      9185      9195      9196      9185      9195      9200
      9186      9185      9187      9186      9185      9195      9187      9185      9195
      9187      9190      9191      9187      9190      9192      9187      9190      9193
      9188      9187      9189      9188      9187      9190      9189      9187      9190
      9190      9193      9194      9190      9193      9195      9190      9193      9219
      9191      9190      9192      9191      9190      9193      9192      9190      9193
      9193      9195      9196      9193      9195      9200      9193      9219      9220
      9193      9219      9221      9193      9219      9225      9194      9193      9195
      9194      9193      9219      9195      9193      9219      9195      9196      9197
      9195      9196      9198      9195      9196      9199      9195      9200      9201
      9195      9200      9202      9195      9200      9203      9196      9195      9200
      9197      9196      9198      9197      9196      9199      9198      9196      9199
      9200      9203      9204      9200      9203      9205      9200      9203      9206
      9201      9200      9202      9201      9200      9203      9202      9200      9203
      9203      9206      9207      9203      9206      9208      9204      9203      9205
      9204      9203      9206      9205      9203      9206      9206      9208      9209
      9206      9208      9213      9207      9206      9208      9208      9209      9210
      9208      9209      9211      9208      9209      9212      9208      9213      9214
      9208      9213      9215      9208      9213      9216      9209      9208      9213
      9210      9209      9211      9210      9209      9212      9211      9209      9212
      9213      9216      9217      9213      9216      9218      9214      9213      9215
      9214      9213      9216      9215      9213      9216      9217      9216      9218
      9219      9221      9222      9219      9221      9223      9219      9221      9224
      9219      9225      9226      9219      9225      9227      9219      9225      9228
      9220      9219      9221      9220      9219      9225      9221      9219      9225
      9222      9221      9223      9222      9221      9224      9223      9221      9224
      9225      9228      9229      9225      9228      9230      9225      9228      9231
      9226      9225      9227      9226      9225      9228      9227      9225      9228
      9228      9231      9232      9228      9231      9233      9228      9231      9234
      9229      9228      9230      9229      9228      9231      9230      9228      9231
      9231      9234      9235      9231      9234      9236      9231      9234      9240
      9232      9231      9233      9232      9231      9234      9233      9231      9234
      9234      9236      9237      9234      9236      9238      9234      9236      9239
      9234      9240      9241      9234      9240      9242      9234      9240      9243
      9235      9234      9236      9235      9234      9240      9236      9234      9240
      9237      9236      9238      9237      9236      9239      9238      9236      9239
      9241      9240      9242      9241      9240      9243      9242      9240      9243
      9244      9245      9246      9244      9245      9247      9244      9245      9248
      9244      9249      9250      9244      9249      9251      9244      9249      9252
      9244      9253      9254      9244      9253      9255      9244      9253      9256
      9244      9257      9258      9244      9257      9259      9244      9257      9260
      9245      9244      9249      9245      9244      9253      9245      9244      9257
      9246      9245      9247      9246      9245      9248      9247      9245      9248
      9249      9244      9253      9249      9244      9257      9250      9249      9251
      9250      9249      9252      9251      9249      9252      9253      9244      9257
      9254      9253      9255      9254      9253      9256      9255      9253      9256
      9257      9260      9261      9257      9260      9262      9257      9260      9267
      9258      9257      9259      9258      9257      9260      9259      9257      9260
      9260      9267      9263      9261      9260      9262      9261      9260      9267
      9262      9260      9267      9263      9266      9268      9264      9263      9265
      9264      9263      9266      9264      9263      9267      9265      9263      9266
      9265      9263      9267      9266      9263      9267      9266      9268      9269
      9266      9268      9270      9266      9268      9273      9268      9273      9271
      9268      9273      9274      9268      9273      9275      9269      9268      9270
      9269      9268      9273      9270      9268      9273      9271      9273      9274
      9271      9273      9275      9271      9323      9324      9271      9323      9325
      9272      9271      9273      9272      9271      9323      9273      9271      9323
      9273      9275      9276      9273      9275      9277      9273      9275      9279
      9274      9273      9275      9275      9277      9278      9275      9279      9280
      9275      9279      9281      9276      9275      9277      9276      9275      9279
      9277      9275      9279      9279      9281      9282      9279      9281      9283
      9280      9279      9281      9281      9283      9284      9281      9283      9285
      9281      9283      9286      9282      9281      9283      9283      9286      9287
      9283      9286      9288      9283      9286      9289      9284      9283      9285
      9284      9283      9286      9285      9283      9286      9286      9289      9290
      9286      9289      9291      9286      9289      9292      9287      9286      9288
      9287      9286      9289      9288      9286      9289      9289      9292      9293
      9289      9292      9294      9289      9292      9295      9290      9289      9291
      9290      9289      9292      9291      9289      9292      9292      9295      9296
      9292      9295      9297      9292      9295      9298      9293      9292      9294
      9293      9292      9295      9294      9292      9295      9295      9298      9299
      9295      9298      9300      9295      9298      9301      9296      9295      9297
      9296      9295      9298      9297      9295      9298      9298      9301      9302
      9298      9301      9303      9298      9301      9304      9299      9298      9300
      9299      9298      9301      9300      9298      9301      9301      9304      9305
      9301      9304      9306      9301      9304      9307      9302      9301      9303
      9302      9301      9304      9303      9301      9304      9304      9307      9308
      9304      9307      9309      9304      9307      9310      9305      9304      9306
      9305      9304      9307      9306      9304      9307      9307      9310      9311
      9307      9310      9312      9307      9310      9313      9308      9307      9309
      9308      9307      9310      9309      9307      9310      9310      9313      9314
      9310      9313      9315      9310      9313      9316      9311      9310      9312
      9311      9310      9313      9312      9310      9313      9313      9316      9317
      9313      9316      9318      9313      9316      9319      9314      9313      9315
      9314      9313      9316      9315      9313      9316      9316      9319      9320
      9316      9319      9321      9316      9319      9322      9317      9316      9318
      9317      9316      9319      9318      9316      9319      9320      9319      9321
      9320      9319      9322      9321      9319      9322      9323      9325      9326
      9323      9325      9327      9323      9325      9328      9324      9323      9325
      9325      9328      9329      9325      9328      9330      9325      9328      9331
      9326      9325      9327      9326      9325      9328      9327      9325      9328
      9328      9331      9332      9328      9331      9333      9328      9331      9334
      9329      9328      9330      9329      9328      9331      9330      9328      9331
      9331      9334      9335      9331      9334      9336      9331      9334      9337
      9332      9331      9333      9332      9331      9334      9333      9331      9334
      9334      9337      9338      9334      9337      9339      9334      9337      9340
      9335      9334      9336      9335      9334      9337      9336      9334      9337
      9337      9340      9341      9337      9340      9342      9337      9340      9343
      9338      9337      9339      9338      9337      9340      9339      9337      9340
      9340      9343      9344      9340      9343      9345      9340      9343      9346
      9341      9340      9342      9341      9340      9343      9342      9340      9343
      9343      9346      9347      9343      9346      9348      9344      9343      9345
      9344      9343      9346      9345      9343      9346      9346      9348      9349
      9346      9348      9350      9347      9346      9348      9348      9350      9351
      9348      9350      9352      9348      9350      9353      9349      9348      9350
      9350      9353      9354      9350      9353      9355      9350      9353      9356
      9351      9350      9352      9351      9350      9353      9352      9350      9353
      9353      9356      9357      9353      9356      9358      9353      9356      9359
      9354      9353      9355      9354      9353      9356      9355      9353      9356
      9356      9359      9360      9356      9359      9361      9356      9359      9362
      9357      9356      9358      9357      9356      9359      9358      9356      9359
      9359      9362      9363      9359      9362      9364      9359      9362      9365
      9360      9359      9361      9360      9359      9362      9361      9359      9362
      9362      9365      9366      9362      9365      9367      9362      9365      9368
      9363      9362      9364      9363      9362      9365      9364      9362      9365
      9365      9368      9369      9365      9368      9370      9365      9368      9371
      9366      9365      9367      9366      9365      9368      9367      9365      9368
      9368      9371      9372      9368      9371      9373      9368      9371      9374
      9369      9368      9370      9369      9368      9371      9370      9368      9371
      9372      9371      9373      9372      9371      9374      9373      9371      9374
      9375      9377      9378      9375      9379      9380      9375      9379      9381
      9375      9379      9383      9375      9395      9391      9375      9395      9396
      9375      9395      9400      9376      9375      9377      9376      9375      9379
      9376      9375      9395      9377      9375      9379      9377      9375      9395
      9379      9375      9395      9379      9381      9382      9379      9383      9384
      9379      9383      9385      9379      9383      9387      9380      9379      9381
      9380      9379      9383      9381      9379      9383      9383      9385      9386
      9383      9387      9388      9383      9387      9389      9383      9387      9391
      9384      9383      9385      9384      9383      9387      9385      9383      9387
      9387      9389      9390      9387      9391      9392      9387      9391      9393
      9387      9391      9395      9388      9387      9389      9388      9387      9391
      9389      9387      9391      9391      9393      9394      9391      9395      9396
      9391      9395      9400      9392      9391      9393      9392      9391      9395
      9393      9391      9395      9395      9400      9397      9396      9395      9400
      9397      9401      9402      9398      9397      9399      9398      9397      9400
      9398      9397      9401      9399      9397      9400      9399      9397      9401
      9400      9397      9401      9401      9402      9403      9401      9402      9404
      9401      9402      9405      9402      9405      9406      9402      9405      9407
      9402      9405      9413      9403      9402      9404      9403      9402      9405
      9404      9402      9405      9405      9407      9408      9405      9413      9414
      9405      9413      9415      9405      9413      9416      9406      9405      9407
      9406      9405      9413      9407      9405      9413      9407      9408      9409
      9407      9408      9410      9408      9410      9411      9408      9410      9412
      9408      9410      9422      9409      9408      9410      9410      9422      9423
      9410      9422      9424      9410      9422      9425      9411      9410      9412
      9411      9410      9422      9412      9410      9422      9413      9416      9417
      9414      9413      9415      9414      9413      9416      9415      9413      9416
      9416      9417      9418      9416      9417      9419      9417      9419      9420
      9417      9419      9421      9417      9419      9469      9418      9417      9419
      9419      9469      9470      9419      9469      9471      9419      9469      9472
      9420      9419      9421      9420      9419      9469      9421      9419      9469
      9422      9425      9426      9422      9425      9427      9422      9425      9428
      9423      9422      9424      9423      9422      9425      9424      9422      9425
      9425      9428      9429      9425      9428      9430      9426      9425      9427
      9426      9425      9428      9427      9425      9428      9428      9430      9431
      9428      9430      9432      9429      9428      9430      9430      9432      9433
      9430      9432      9434      9430      9432      9435      9431      9430      9432
      9432      9435      9436      9432      9435      9437      9433      9432      9434
      9433      9432      9435      9434      9432      9435      9435      9437      9438
      9435      9437      9439      9436      9435      9437      9437      9439      9440
      9437      9439      9441      9437      9439      9442      9438      9437      9439
      9439      9442      9443      9439      9442      9444      9440      9439      9441
      9440      9439      9442      9441      9439      9442      9442      9444      9445
      9442      9444      9446      9443      9442      9444      9444      9446      9447
      9444      9446      9448      9444      9446      9449      9445      9444      9446
      9446      9449      9450      9446      9449      9451      9447      9446      9448
      9447      9446      9449      9448      9446      9449      9449      9451      9452
      9449      9451      9453      9450      9449      9451      9451      9453      9454
      9451      9453      9455      9451      9453      9456      9452      9451      9453
      9453      9456      9457      9453      9456      9458      9453      9456      9459
      9454      9453      9455      9454      9453      9456      9455      9453      9456
      9456      9459      9460      9456      9459      9461      9456      9459      9462
      9457      9456      9458      9457      9456      9459      9458      9456      9459
      9459      9462      9463      9459      9462      9464      9459      9462      9465
      9460      9459      9461      9460      9459      9462      9461      9459      9462
      9462      9465      9466      9462      9465      9467      9462      9465      9468
      9463      9462      9464      9463      9462      9465      9464      9462      9465
      9466      9465      9467      9466      9465      9468      9467      9465      9468
      9469      9472      9473      9469      9472      9474      9469      9472      9475
      9470      9469      9471      9470      9469      9472      9471      9469      9472
      9472      9475      9476      9472      9475      9477      9472      9475      9478
      9473      9472      9474      9473      9472      9475      9474      9472      9475
      9475      9478      9479      9475      9478      9480      9475      9478      9481
      9476      9475      9477      9476      9475      9478      9477      9475      9478
      9478      9481      9482      9478      9481      9483      9478      9481      9484
      9479      9478      9480      9479      9478      9481      9480      9478      9481
      9481      9484      9485      9481      9484      9486      9481      9484      9487
      9482      9481      9483      9482      9481      9484      9483      9481      9484
      9484      9487      9488      9484      9487      9489      9484      9487      9490
      9485      9484      9486      9485      9484      9487      9486      9484      9487
      9487      9490      9491      9487      9490      9492      9487      9490      9493
      9488      9487      9489      9488      9487      9490      9489      9487      9490
      9490      9493      9494      9490      9493      9495      9490      9493      9496
      9491      9490      9492      9491      9490      9493      9492      9490      9493
      9493      9496      9497      9493      9496      9498      9493      9496      9499
      9494      9493      9495      9494      9493      9496      9495      9493      9496
      9496      9499      9500      9496      9499      9501      9496      9499      9502
      9497      9496      9498      9497      9496      9499      9498      9496      9499
      9499      9502      9503      9499      9502      9504      9499      9502      9505
      9500      9499      9501      9500      9499      9502      9501      9499      9502
      9502      9505      9506      9502      9505      9507      9502      9505      9508
      9503      9502      9504      9503      9502      9505      9504      9502      9505
      9505      9508      9509      9505      9508      9510      9505      9508      9511
      9506      9505      9507      9506      9505      9508      9507      9505      9508
      9508      9511      9512      9508      9511      9513      9508      9511      9514
      9509      9508      9510      9509      9508      9511      9510      9508      9511
      9511      9514      9515      9511      9514      9516      9511      9514      9517
      9512      9511      9513      9512      9511      9514      9513      9511      9514
      9515      9514      9516      9515      9514      9517      9516      9514      9517
      9518      9522      9523      9518      9522      9524      9518      9522      9525
      9519      9518      9520      9519      9518      9521      9519      9518      9522
      9520      9518      9521      9520      9518      9522      9521      9518      9522
      9522      9525      9526      9522      9525      9527      9522      9525      9531
      9523      9522      9524      9523      9522      9525      9524      9522      9525
      9525      9531      9528      9526      9525      9527      9526      9525      9531
      9527      9525      9531      9528      9532      9533      9529      9528      9530
      9529      9528      9531      9529      9528      9532      9530      9528      9531
      9530      9528      9532      9531      9528      9532      9532      9533      9534
      9532      9533      9535      9532      9533      9536      9533      9536      9537
      9533      9536      9538      9533      9536      9544      9534      9533      9535
      9534      9533      9536      9535      9533      9536      9536      9538      9539
      9536      9544      9545      9536      9544      9546      9536      9544      9547
      9537      9536      9538      9537      9536      9544      9538      9536      9544
      9538      9539      9540      9538      9539      9541      9539      9541      9542
      9539      9541      9543      9539      9541      9553      9540      9539      9541
      9541      9553      9554      9541      9553      9555      9541      9553      9556
      9542      9541      9543      9542      9541      9553      9543      9541      9553
      9544      9547      9548      9545      9544      9546      9545      9544      9547
      9546      9544      9547      9547      9548      9549      9547      9548      9550
      9548      9550      9551      9548      9550      9552      9548      9550      9600
      9549      9548      9550      9550      9600      9601      9550      9600      9602
      9550      9600      9603      9551      9550      9552      9551      9550      9600
      9552      9550      9600      9553      9556      9557      9553      9556      9558
      9553      9556      9559      9554      9553      9555      9554      9553      9556
      9555      9553      9556      9556      9559      9560      9556      9559      9561
      9557      9556      9558      9557      9556      9559      9558      9556      9559
      9559      9561      9562      9559      9561      9563      9560      9559      9561
      9561      9563      9564      9561      9563      9565      9561      9563      9566
      9562      9561      9563      9563      9566      9567      9563      9566      9568
      9564      9563      9565      9564      9563      9566      9565      9563      9566
      9566      9568      9569      9566      9568      9570      9567      9566      9568
      9568      9570      9571      9568      9570      9572      9568      9570      9573
      9569      9568      9570      9570      9573      9574      9570      9573      9575
      9571      9570      9572      9571      9570      9573      9572      9570      9573
      9573      9575      9576      9573      9575      9577      9574      9573      9575
      9575      9577      9578      9575      9577      9579      9575      9577      9580
      9576      9575      9577      9577      9580      9581      9577      9580      9582
      9578      9577      9579      9578      9577      9580      9579      9577      9580
      9580      9582      9583      9580      9582      9584      9581      9580      9582
      9582      9584      9585      9582      9584      9586      9582      9584      9587
      9583      9582      9584      9584      9587      9588      9584      9587      9589
      9584      9587      9590      9585      9584      9586      9585      9584      9587
      9586      9584      9587      9587      9590      9591      9587      9590      9592
      9587      9590      9593      9588      9587      9589      9588      9587      9590
      9589      9587      9590      9590      9593      9594      9590      9593      9595
      9590      9593      9596      9591      9590      9592      9591      9590      9593
      9592      9590      9593      9593      9596      9597      9593      9596      9598
      9593      9596      9599      9594      9593      9595      9594      9593      9596
      9595      9593      9596      9597      9596      9598      9597      9596      9599
      9598      9596      9599      9600      9603      9604      9600      9603      9605
      9600      9603      9606      9601      9600      9602      9601      9600      9603
      9602      9600      9603      9603      9606      9607      9603      9606      9608
      9603      9606      9609      9604      9603      9605      9604      9603      9606
      9605      9603      9606      9606      9609      9610      9606      9609      9611
      9606      9609      9612      9607      9606      9608      9607      9606      9609
      9608      9606      9609      9609      9612      9613      9609      9612      9614
      9609      9612      9615      9610      9609      9611      9610      9609      9612
      9611      9609      9612      9612      9615      9616      9612      9615      9617
      9612      9615      9618      9613      9612      9614      9613      9612      9615
      9614      9612      9615      9615      9618      9619      9615      9618      9620
      9615      9618      9621      9616      9615      9617      9616      9615      9618
      9617      9615      9618      9618      9621      9622      9618      9621      9623
      9618      9621      9624      9619      9618      9620      9619      9618      9621
      9620      9618      9621      9621      9624      9625      9621      9624      9626
      9621      9624      9627      9622      9621      9623      9622      9621      9624
      9623      9621      9624      9624      9627      9628      9624      9627      9629
      9624      9627      9630      9625      9624      9626      9625      9624      9627
      9626      9624      9627      9627      9630      9631      9627      9630      9632
      9627      9630      9633      9628      9627      9629      9628      9627      9630
      9629      9627      9630      9630      9633      9634      9630      9633      9635
      9630      9633      9636      9631      9630      9632      9631      9630      9633
      9632      9630      9633      9633      9636      9637      9633      9636      9638
      9633      9636      9639      9634      9633      9635      9634      9633      9636
      9635      9633      9636      9636      9639      9640      9636      9639      9641
      9636      9639      9642      9637      9636      9638      9637      9636      9639
      9638      9636      9639      9639      9642      9643      9639      9642      9644
      9639      9642      9645      9640      9639      9641      9640      9639      9642
      9641      9639      9642      9642      9645      9646      9642      9645      9647
      9642      9645      9648      9643      9642      9644      9643      9642      9645
      9644      9642      9645      9646      9645      9647      9646      9645      9648
      9647      9645      9648      9649      9653      9654      9649      9653      9655
      9649      9653      9656      9650      9649      9651      9650      9649      9652
      9650      9649      9653      9651      9649      9652      9651      9649      9653
      9652      9649      9653      9653      9656      9657      9653      9656      9658
      9653      9656      9662      9654      9653      9655      9654      9653      9656
      9655      9653      9656      9656      9662      9659      9657      9656      9658
      9657      9656      9662      9658      9656      9662      9659      9663      9664
      9660      9659      9661      9660      9659      9662      9660      9659      9663
      9661      9659      9662      9661      9659      9663      9662      9659      9663
      9663      9664      9665      9663      9664      9666      9663      9664      9667
      9664      9667      9668      9664      9667      9669      9664      9667      9675
      9665      9664      9666      9665      9664      9667      9666      9664      9667
      9667      9669      9670      9667      9675      9676      9667      9675      9677
      9667      9675      9678      9668      9667      9669      9668      9667      9675
      9669      9667      9675      9669      9670      9671      9669      9670      9672
      9670      9672      9673      9670      9672      9674      9670      9672      9684
      9671      9670      9672      9672      9684      9685      9672      9684      9686
      9672      9684      9687      9673      9672      9674      9673      9672      9684
      9674      9672      9684      9675      9678      9679      9676      9675      9677
      9676      9675      9678      9677      9675      9678      9678      9679      9680
      9678      9679      9681      9679      9681      9682      9679      9681      9683
      9679      9681      9731      9680      9679      9681      9681      9731      9732
      9681      9731      9733      9681      9731      9734      9682      9681      9683
      9682      9681      9731      9683      9681      9731      9684      9687      9688
      9684      9687      9689      9684      9687      9690      9685      9684      9686
      9685      9684      9687      9686      9684      9687      9687      9690      9691
      9687      9690      9692      9688      9687      9689      9688      9687      9690
      9689      9687      9690      9690      9692      9693      9690      9692      9694
      9691      9690      9692      9692      9694      9695      9692      9694      9696
      9692      9694      9697      9693      9692      9694      9694      9697      9698
      9694      9697      9699      9695      9694      9696      9695      9694      9697
      9696      9694      9697      9697      9699      9700      9697      9699      9701
      9698      9697      9699      9699      9701      9702      9699      9701      9703
      9699      9701      9704      9700      9699      9701      9701      9704      9705
      9701      9704      9706      9702      9701      9703      9702      9701      9704
      9703      9701      9704      9704      9706      9707      9704      9706      9708
      9705      9704      9706      9706      9708      9709      9706      9708      9710
      9706      9708      9711      9707      9706      9708      9708      9711      9712
      9708      9711      9713      9709      9708      9710      9709      9708      9711
      9710      9708      9711      9711      9713      9714      9711      9713      9715
      9712      9711      9713      9713      9715      9716      9713      9715      9717
      9713      9715      9718      9714      9713      9715      9715      9718      9719
      9715      9718      9720      9715      9718      9721      9716      9715      9717
      9716      9715      9718      9717      9715      9718      9718      9721      9722
      9718      9721      9723      9718      9721      9724      9719      9718      9720
      9719      9718      9721      9720      9718      9721      9721      9724      9725
      9721      9724      9726      9721      9724      9727      9722      9721      9723
      9722      9721      9724      9723      9721      9724      9724      9727      9728
      9724      9727      9729      9724      9727      9730      9725      9724      9726
      9725      9724      9727      9726      9724      9727      9728      9727      9729
      9728      9727      9730      9729      9727      9730      9731      9734      9735
      9731      9734      9736      9731      9734      9737      9732      9731      9733
      9732      9731      9734      9733      9731      9734      9734      9737      9738
      9734      9737      9739      9734      9737      9740      9735      9734      9736
      9735      9734      9737      9736      9734      9737      9737      9740      9741
      9737      9740      9742      9737      9740      9743      9738      9737      9739
      9738      9737      9740      9739      9737      9740      9740      9743      9744
      9740      9743      9745      9740      9743      9746      9741      9740      9742
      9741      9740      9743      9742      9740      9743      9743      9746      9747
      9743      9746      9748      9743      9746      9749      9744      9743      9745
      9744      9743      9746      9745      9743      9746      9746      9749      9750
      9746      9749      9751      9746      9749      9752      9747      9746      9748
      9747      9746      9749      9748      9746      9749      9749      9752      9753
      9749      9752      9754      9749      9752      9755      9750      9749      9751
      9750      9749      9752      9751      9749      9752      9752      9755      9756
      9752      9755      9757      9752      9755      9758      9753      9752      9754
      9753      9752      9755      9754      9752      9755      9755      9758      9759
      9755      9758      9760      9755      9758      9761      9756      9755      9757
      9756      9755      9758      9757      9755      9758      9758      9761      9762
      9758      9761      9763      9758      9761      9764      9759      9758      9760
      9759      9758      9761      9760      9758      9761      9761      9764      9765
      9761      9764      9766      9761      9764      9767      9762      9761      9763
      9762      9761      9764      9763      9761      9764      9764      9767      9768
      9764      9767      9769      9764      9767      9770      9765      9764      9766
      9765      9764      9767      9766      9764      9767      9767      9770      9771
      9767      9770      9772      9767      9770      9773      9768      9767      9769
      9768      9767      9770      9769      9767      9770      9770      9773      9774
      9770      9773      9775      9770      9773      9776      9771      9770      9772
      9771      9770      9773      9772      9770      9773      9773      9776      9777
      9773      9776      9778      9773      9776      9779      9774      9773      9775
      9774      9773      9776      9775      9773      9776      9777      9776      9778
      9777      9776      9779      9778      9776      9779      9780      9782      9783
      9780      9784      9785      9780      9784      9786      9780      9784      9787
      9780      9826      9823      9780      9826      9827      9780      9826      9828
      9781      9780      9782      9781      9780      9784      9781      9780      9826
      9782      9780      9784      9782      9780      9826      9784      9780      9826
      9784      9787      9788      9784      9787      9818      9785      9784      9786
      9785      9784      9787      9786      9784      9787      9787      9788      9789
      9787      9788      9790      9787      9818      9816      9787      9818      9819
      9787      9818      9823      9788      9787      9818      9788      9790      9791
      9788      9790      9792      9788      9790      9793      9789      9788      9790
      9790      9793      9794      9790      9793      9795      9790      9793      9816
      9791      9790      9792      9791      9790      9793      9792      9790      9793
      9793      9795      9796      9793      9795      9797      9793      9795      9805
      9793      9816      9813      9793      9816      9817      9793      9816      9818
      9794      9793      9795      9794      9793      9816      9795      9793      9816
      9795      9797      9798      9795      9797      9799      9795      9797      9800
      9795      9805      9803      9795      9805      9806      9795      9805      9810
      9796      9795      9797      9796      9795      9805      9797      9795      9805
      9797      9800      9801      9797      9800      9802      9797      9800      9803
      9798      9797      9799      9798      9797      9800      9799      9797      9800
      9800      9803      9804      9800      9803      9805      9800      9803      9829
      9801      9800      9802      9801      9800      9803      9802      9800      9803
      9803      9805      9806      9803      9805      9810      9803      9829      9830
      9803      9829      9831      9803      9829      9835      9804      9803      9805
      9804      9803      9829      9805      9803      9829      9805      9806      9807
      9805      9806      9808      9805      9806      9809      9805      9810      9811
      9805      9810      9812      9805      9810      9813      9806      9805      9810
      9807      9806      9808      9807      9806      9809      9808      9806      9809
      9810      9813      9814      9810      9813      9815      9810      9813      9816
      9811      9810      9812      9811      9810      9813      9812      9810      9813
      9813      9816      9817      9813      9816      9818      9814      9813      9815
      9814      9813      9816      9815      9813      9816      9816      9818      9819
      9816      9818      9823      9817      9816      9818      9818      9819      9820
      9818      9819      9821      9818      9819      9822      9818      9823      9824
      9818      9823      9825      9818      9823      9826      9819      9818      9823
      9820      9819      9821      9820      9819      9822      9821      9819      9822
      9823      9826      9827      9823      9826      9828      9824      9823      9825
      9824      9823      9826      9825      9823      9826      9827      9826      9828
      9829      9831      9832      9829      9831      9833      9829      9831      9834
      9829      9835      9836      9829      9835      9837      9829      9835      9838
      9830      9829      9831      9830      9829      9835      9831      9829      9835
      9832      9831      9833      9832      9831      9834      9833      9831      9834
      9835      9838      9839      9835      9838      9840      9835      9838      9841
      9836      9835      9837      9836      9835      9838      9837      9835      9838
      9838      9841      9842      9838      9841      9843      9838      9841      9844
      9839      9838      9840      9839      9838      9841      9840      9838      9841
      9841      9844      9845      9841      9844      9846      9841      9844      9850
      9842      9841      9843      9842      9841      9844      9843      9841      9844
      9844      9846      9847      9844      9846      9848      9844      9846      9849
      9844      9850      9851      9844      9850      9852      9844      9850      9853
      9845      9844      9846      9845      9844      9850      9846      9844      9850
      9847      9846      9848      9847      9846      9849      9848      9846      9849
      9851      9850      9852      9851      9850      9853      9852      9850      9853
      9854      9855      9856      9854      9855      9857      9854      9855      9870
      9854      9858      9859      9854      9858      9860      9854      9858      9861
      9854      9862      9863      9854      9862      9864      9854      9862      9865
      9854      9866      9867      9854      9866      9868      9854      9866      9869
      9855      9854      9858      9855      9854      9862      9855      9854      9866
      9855      9870      9871      9855      9870      9872      9855      9870      9876
      9856      9855      9857      9856      9855      9870      9857      9855      9870
      9858      9854      9862      9858      9854      9866      9859      9858      9860
      9859      9858      9861      9860      9858      9861      9862      9854      9866
      9863      9862      9864      9863      9862      9865      9864      9862      9865
      9867      9866      9868      9867      9866      9869      9868      9866      9869
      9870      9876      9873      9871      9870      9872      9871      9870      9876
      9872      9870      9876      9873      9877      9878      9874      9873      9875
      9874      9873      9876      9874      9873      9877      9875      9873      9876
      9875      9873      9877      9876      9873      9877      9877      9878      9879
      9877      9878      9880      9877      9878      9881      9878      9881      9882
      9878      9881      9883      9878      9881      9889      9879      9878      9880
      9879      9878      9881      9880      9878      9881      9881      9883      9884
      9881      9889      9890      9881      9889      9891      9881      9889      9892
      9882      9881      9883      9882      9881      9889      9883      9881      9889
      9883      9884      9885      9883      9884      9886      9884      9886      9887
      9884      9886      9888      9884      9886      9898      9885      9884      9886
      9886      9898      9899      9886      9898      9900      9886      9898      9901
      9887      9886      9888      9887      9886      9898      9888      9886      9898
      9889      9892      9893      9890      9889      9891      9890      9889      9892
      9891      9889      9892      9892      9893      9894      9892      9893      9895
      9893      9895      9896      9893      9895      9897      9893      9895      9945
      9894      9893      9895      9895      9945      9946      9895      9945      9947
      9895      9945      9948      9896      9895      9897      9896      9895      9945
      9897      9895      9945      9898      9901      9902      9898      9901      9903
      9898      9901      9904      9899      9898      9900      9899      9898      9901
      9900      9898      9901      9901      9904      9905      9901      9904      9906
      9902      9901      9903      9902      9901      9904      9903      9901      9904
      9904      9906      9907      9904      9906      9908      9905      9904      9906
      9906      9908      9909      9906      9908      9910      9906      9908      9911
      9907      9906      9908      9908      9911      9912      9908      9911      9913
      9909      9908      9910      9909      9908      9911      9910      9908      9911
      9911      9913      9914      9911      9913      9915      9912      9911      9913
      9913      9915      9916      9913      9915      9917      9913      9915      9918
      9914      9913      9915      9915      9918      9919      9915      9918      9920
      9916      9915      9917      9916      9915      9918      9917      9915      9918
      9918      9920      9921      9918      9920      9922      9919      9918      9920
      9920      9922      9923      9920      9922      9924      9920      9922      9925
      9921      9920      9922      9922      9925      9926      9922      9925      9927
      9923      9922      9924      9923      9922      9925      9924      9922      9925
      9925      9927      9928      9925      9927      9929      9926      9925      9927
      9927      9929      9930      9927      9929      9931      9927      9929      9932
      9928      9927      9929      9929      9932      9933      9929      9932      9934
      9929      9932      9935      9930      9929      9931      9930      9929      9932
      9931      9929      9932      9932      9935      9936      9932      9935      9937
      9932      9935      9938      9933      9932      9934      9933      9932      9935
      9934      9932      9935      9935      9938      9939      9935      9938      9940
      9935      9938      9941      9936      9935      9937      9936      9935      9938
      9937      9935      9938      9938      9941      9942      9938      9941      9943
      9938      9941      9944      9939      9938      9940      9939      9938      9941
      9940      9938      9941      9942      9941      9943      9942      9941      9944
      9943      9941      9944      9945      9948      9949      9945      9948      9950
      9945      9948      9951      9946      9945      9947      9946      9945      9948
      9947      9945      9948      9948      9951      9952      9948      9951      9953
      9948      9951      9954      9949      9948      9950      9949      9948      9951
      9950      9948      9951      9951      9954      9955      9951      9954      9956
      9951      9954      9957      9952      9951      9953      9952      9951      9954
      9953      9951      9954      9954      9957      9958      9954      9957      9959
      9954      9957      9960      9955      9954      9956      9955      9954      9957
      9956      9954      9957      9957      9960      9961      9957      9960      9962
      9957      9960      9963      9958      9957      9959      9958      9957      9960
      9959      9957      9960      9960      9963      9964      9960      9963      9965
      9960      9963      9966      9961      9960      9962      9961      9960      9963
      9962      9960      9963      9963      9966      9967      9963      9966      9968
      9963      9966      9969      9964      9963      9965      9964      9963      9966
      9965      9963      9966      9966      9969      9970      9966      9969      9971
      9966      9969      9972      9967      9966      9968      9967      9966      9969
      9968      9966      9969      9969      9972      9973      9969      9972      9974
      9969      9972      9975      9970      9969      9971      9970      9969      9972
      9971      9969      9972      9972      9975      9976      9972      9975      9977
      9972      9975      9978      9973      9972      9974      9973      9972      9975
      9974      9972      9975      9975      9978      9979      9975      9978      9980
      9975      9978      9981      9976      9975      9977      9976      9975      9978
      9977      9975      9978      9978      9981      9982      9978      9981      9983
      9978      9981      9984      9979      9978      9980      9979      9978      9981
      9980      9978      9981      9981      9984      9985      9981      9984      9986
      9981      9984      9987      9982      9981      9983      9982      9981      9984
      9983      9981      9984      9984      9987      9988      9984      9987      9989
      9984      9987      9990      9985      9984      9986      9985      9984      9987
      9986      9984      9987      9987      9990      9991      9987      9990      9992
      9987      9990      9993      9988      9987      9989      9988      9987      9990
      9989      9987      9990      9991      9990      9992      9991      9990      9993
      9992      9990      9993      9994      9998      9999      9994      9998     10000
      9994      9998     10001      9995      9994      9996      9995      9994      9997
      9995      9994      9998      9996      9994      9997      9996      9994      9998
      9997      9994      9998      9998     10001     10002      9998     10001     10003
      9998     10001     10007      9999      9998     10000      9999      9998     10001
     10000      9998     10001     10001     10007     10004     10002     10001     10003
     10002     10001     10007     10003     10001     10007     10004     10008     10009
     10005     10004     10006     10005     10004     10007     10005     10004     10008
     10006     10004     10007     10006     10004     10008     10007     10004     10008
     10008     10009     10010     10008     10009     10011     10008     10009     10012
     10009     10012     10013     10009     10012     10014     10009     10012     10020
     10010     10009     10011     10010     10009     10012     10011     10009     10012
     10012     10014     10015     10012     10020     10021     10012     10020     10022
     10012     10020     10023     10013     10012     10014     10013     10012     10020
     10014     10012     10020     10014     10015     10016     10014     10015     10017
     10015     10017     10018     10015     10017     10019     10015     10017     10029
     10016     10015     10017     10017     10029     10030     10017     10029     10031
     10017     10029     10032     10018     10017     10019     10018     10017     10029
     10019     10017     10029     10020     10023     10024     10021     10020     10022
     10021     10020     10023     10022     10020     10023     10023     10024     10025
     10023     10024     10026     10024     10026     10027     10024     10026     10028
     10024     10026     10076     10025     10024     10026     10026     10076     10077
     10026     10076     10078     10026     10076     10079     10027     10026     10028
     10027     10026     10076     10028     10026     10076     10029     10032     10033
     10029     10032     10034     10029     10032     10035     10030     10029     10031
     10030     10029     10032     10031     10029     10032     10032     10035     10036
     10032     10035     10037     10033     10032     10034     10033     10032     10035
     10034     10032     10035     10035     10037     10038     10035     10037     10039
     10036     10035     10037     10037     10039     10040     10037     10039     10041
     10037     10039     10042     10038     10037     10039     10039     10042     10043
     10039     10042     10044     10040     10039     10041     10040     10039     10042
     10041     10039     10042     10042     10044     10045     10042     10044     10046
     10043     10042     10044     10044     10046     10047     10044     10046     10048
     10044     10046     10049     10045     10044     10046     10046     10049     10050
     10046     10049     10051     10047     10046     10048     10047     10046     10049
     10048     10046     10049     10049     10051     10052     10049     10051     10053
     10050     10049     10051     10051     10053     10054     10051     10053     10055
     10051     10053     10056     10052     10051     10053     10053     10056     10057
     10053     10056     10058     10054     10053     10055     10054     10053     10056
     10055     10053     10056     10056     10058     10059     10056     10058     10060
     10057     10056     10058     10058     10060     10061     10058     10060     10062
     10058     10060     10063     10059     10058     10060     10060     10063     10064
     10060     10063     10065     10060     10063     10066     10061     10060     10062
     10061     10060     10063     10062     10060     10063     10063     10066     10067
     10063     10066     10068     10063     10066     10069     10064     10063     10065
     10064     10063     10066     10065     10063     10066     10066     10069     10070
     10066     10069     10071     10066     10069     10072     10067     10066     10068
     10067     10066     10069     10068     10066     10069     10069     10072     10073
     10069     10072     10074     10069     10072     10075     10070     10069     10071
     10070     10069     10072     10071     10069     10072     10073     10072     10074
     10073     10072     10075     10074     10072     10075     10076     10079     10080
     10076     10079     10081     10076     10079     10082     10077     10076     10078
     10077     10076     10079     10078     10076     10079     10079     10082     10083
     10079     10082     10084     10079     10082     10085     10080     10079     10081
     10080     10079     10082     10081     10079     10082     10082     10085     10086
     10082     10085     10087     10082     10085     10088     10083     10082     10084
     10083     10082     10085     10084     10082     10085     10085     10088     10089
     10085     10088     10090     10085     10088     10091     10086     10085     10087
     10086     10085     10088     10087     10085     10088     10088     10091     10092
     10088     10091     10093     10088     10091     10094     10089     10088     10090
     10089     10088     10091     10090     10088     10091     10091     10094     10095
     10091     10094     10096     10091     10094     10097     10092     10091     10093
     10092     10091     10094     10093     10091     10094     10094     10097     10098
     10094     10097     10099     10094     10097     10100     10095     10094     10096
     10095     10094     10097     10096     10094     10097     10097     10100     10101
     10097     10100     10102     10097     10100     10103     10098     10097     10099
     10098     10097     10100     10099     10097     10100     10100     10103     10104
     10100     10103     10105     10100     10103     10106     10101     10100     10102
     10101     10100     10103     10102     10100     10103     10103     10106     10107
     10103     10106     10108     10103     10106     10109     10104     10103     10105
     10104     10103     10106     10105     10103     10106     10106     10109     10110
     10106     10109     10111     10106     10109     10112     10107     10106     10108
     10107     10106     10109     10108     10106     10109     10109     10112     10113
     10109     10112     10114     10109     10112     10115     10110     10109     10111
     10110     10109     10112     10111     10109     10112     10112     10115     10116
     10112     10115     10117     10112     10115     10118     10113     10112     10114
     10113     10112     10115     10114     10112     10115     10115     10118     10119
     10115     10118     10120     10115     10118     10121     10116     10115     10117
     10116     10115     10118     10117     10115     10118     10118     10121     10122
     10118     10121     10123     10118     10121     10124     10119     10118     10120
     10119     10118     10121     10120     10118     10121     10122     10121     10123
     10122     10121     10124     10123     10121     10124     10125     10129     10130
     10125     10129     10131     10125     10129     10132     10126     10125     10127
     10126     10125     10128     10126     10125     10129     10127     10125     10128
     10127     10125     10129     10128     10125     10129     10129     10132     10133
     10129     10132     10134     10129     10132     10138     10130     10129     10131
     10130     10129     10132     10131     10129     10132     10132     10138     10135
     10133     10132     10134     10133     10132     10138     10134     10132     10138
     10135     10139     10140     10136     10135     10137     10136     10135     10138
     10136     10135     10139     10137     10135     10138     10137     10135     10139
     10138     10135     10139     10139     10140     10141     10139     10140     10142
     10139     10140     10143     10140     10143     10144     10140     10143     10145
     10140     10143     10151     10141     10140     10142     10141     10140     10143
     10142     10140     10143     10143     10145     10146     10143     10151     10152
     10143     10151     10153     10143     10151     10154     10144     10143     10145
     10144     10143     10151     10145     10143     10151     10145     10146     10147
     10145     10146     10148     10146     10148     10149     10146     10148     10150
     10146     10148     10160     10147     10146     10148     10148     10160     10161
     10148     10160     10162     10148     10160     10163     10149     10148     10150
     10149     10148     10160     10150     10148     10160     10151     10154     10155
     10152     10151     10153     10152     10151     10154     10153     10151     10154
     10154     10155     10156     10154     10155     10157     10155     10157     10158
     10155     10157     10159     10155     10157     10207     10156     10155     10157
     10157     10207     10208     10157     10207     10209     10157     10207     10210
     10158     10157     10159     10158     10157     10207     10159     10157     10207
     10160     10163     10164     10160     10163     10165     10160     10163     10166
     10161     10160     10162     10161     10160     10163     10162     10160     10163
     10163     10166     10167     10163     10166     10168     10164     10163     10165
     10164     10163     10166     10165     10163     10166     10166     10168     10169
     10166     10168     10170     10167     10166     10168     10168     10170     10171
     10168     10170     10172     10168     10170     10173     10169     10168     10170
     10170     10173     10174     10170     10173     10175     10171     10170     10172
     10171     10170     10173     10172     10170     10173     10173     10175     10176
     10173     10175     10177     10174     10173     10175     10175     10177     10178
     10175     10177     10179     10175     10177     10180     10176     10175     10177
     10177     10180     10181     10177     10180     10182     10178     10177     10179
     10178     10177     10180     10179     10177     10180     10180     10182     10183
     10180     10182     10184     10181     10180     10182     10182     10184     10185
     10182     10184     10186     10182     10184     10187     10183     10182     10184
     10184     10187     10188     10184     10187     10189     10185     10184     10186
     10185     10184     10187     10186     10184     10187     10187     10189     10190
     10187     10189     10191     10188     10187     10189     10189     10191     10192
     10189     10191     10193     10189     10191     10194     10190     10189     10191
     10191     10194     10195     10191     10194     10196     10191     10194     10197
     10192     10191     10193     10192     10191     10194     10193     10191     10194
     10194     10197     10198     10194     10197     10199     10194     10197     10200
     10195     10194     10196     10195     10194     10197     10196     10194     10197
     10197     10200     10201     10197     10200     10202     10197     10200     10203
     10198     10197     10199     10198     10197     10200     10199     10197     10200
     10200     10203     10204     10200     10203     10205     10200     10203     10206
     10201     10200     10202     10201     10200     10203     10202     10200     10203
     10204     10203     10205     10204     10203     10206     10205     10203     10206
     10207     10210     10211     10207     10210     10212     10207     10210     10213
     10208     10207     10209     10208     10207     10210     10209     10207     10210
     10210     10213     10214     10210     10213     10215     10210     10213     10216
     10211     10210     10212     10211     10210     10213     10212     10210     10213
     10213     10216     10217     10213     10216     10218     10213     10216     10219
     10214     10213     10215     10214     10213     10216     10215     10213     10216
     10216     10219     10220     10216     10219     10221     10216     10219     10222
     10217     10216     10218     10217     10216     10219     10218     10216     10219
     10219     10222     10223     10219     10222     10224     10219     10222     10225
     10220     10219     10221     10220     10219     10222     10221     10219     10222
     10222     10225     10226     10222     10225     10227     10222     10225     10228
     10223     10222     10224     10223     10222     10225     10224     10222     10225
     10225     10228     10229     10225     10228     10230     10225     10228     10231
     10226     10225     10227     10226     10225     10228     10227     10225     10228
     10228     10231     10232     10228     10231     10233     10228     10231     10234
     10229     10228     10230     10229     10228     10231     10230     10228     10231
     10231     10234     10235     10231     10234     10236     10231     10234     10237
     10232     10231     10233     10232     10231     10234     10233     10231     10234
     10234     10237     10238     10234     10237     10239     10234     10237     10240
     10235     10234     10236     10235     10234     10237     10236     10234     10237
     10237     10240     10241     10237     10240     10242     10237     10240     10243
     10238     10237     10239     10238     10237     10240     10239     10237     10240
     10240     10243     10244     10240     10243     10245     10240     10243     10246
     10241     10240     10242     10241     10240     10243     10242     10240     10243
     10243     10246     10247     10243     10246     10248     10243     10246     10249
     10244     10243     10245     10244     10243     10246     10245     10243     10246
     10246     10249     10250     10246     10249     10251     10246     10249     10252
     10247     10246     10248     10247     10246     10249     10248     10246     10249
     10249     10252     10253     10249     10252     10254     10249     10252     10255
     10250     10249     10251     10250     10249     10252     10251     10249     10252
     10253     10252     10254     10253     10252     10255     10254     10252     10255
     10256     10260     10261     10256     10260     10262     10256     10260     10263
     10257     10256     10258     10257     10256     10259     10257     10256     10260
     10258     10256     10259     10258     10256     10260     10259     10256     10260
     10260     10263     10264     10260     10263     10265     10260     10263     10269
     10261     10260     10262     10261     10260     10263     10262     10260     10263
     10263     10269     10266     10264     10263     10265     10264     10263     10269
     10265     10263     10269     10266     10270     10271     10267     10266     10268
     10267     10266     10269     10267     10266     10270     10268     10266     10269
     10268     10266     10270     10269     10266     10270     10270     10271     10272
     10270     10271     10273     10270     10271     10274     10271     10274     10275
     10271     10274     10276     10271     10274     10282     10272     10271     10273
     10272     10271     10274     10273     10271     10274     10274     10276     10277
     10274     10282     10283     10274     10282     10284     10274     10282     10285
     10275     10274     10276     10275     10274     10282     10276     10274     10282
     10276     10277     10278     10276     10277     10279     10277     10279     10280
     10277     10279     10281     10277     10279     10291     10278     10277     10279
     10279     10291     10292     10279     10291     10293     10279     10291     10294
     10280     10279     10281     10280     10279     10291     10281     10279     10291
     10282     10285     10286     10283     10282     10284     10283     10282     10285
     10284     10282     10285     10285     10286     10287     10285     10286     10288
     10286     10288     10289     10286     10288     10290     10286     10288     10338
     10287     10286     10288     10288     10338     10339     10288     10338     10340
     10288     10338     10341     10289     10288     10290     10289     10288     10338
     10290     10288     10338     10291     10294     10295     10291     10294     10296
     10291     10294     10297     10292     10291     10293     10292     10291     10294
     10293     10291     10294     10294     10297     10298     10294     10297     10299
     10295     10294     10296     10295     10294     10297     10296     10294     10297
     10297     10299     10300     10297     10299     10301     10298     10297     10299
     10299     10301     10302     10299     10301     10303     10299     10301     10304
     10300     10299     10301     10301     10304     10305     10301     10304     10306
     10302     10301     10303     10302     10301     10304     10303     10301     10304
     10304     10306     10307     10304     10306     10308     10305     10304     10306
     10306     10308     10309     10306     10308     10310     10306     10308     10311
     10307     10306     10308     10308     10311     10312     10308     10311     10313
     10309     10308     10310     10309     10308     10311     10310     10308     10311
     10311     10313     10314     10311     10313     10315     10312     10311     10313
     10313     10315     10316     10313     10315     10317     10313     10315     10318
     10314     10313     10315     10315     10318     10319     10315     10318     10320
     10316     10315     10317     10316     10315     10318     10317     10315     10318
     10318     10320     10321     10318     10320     10322     10319     10318     10320
     10320     10322     10323     10320     10322     10324     10320     10322     10325
     10321     10320     10322     10322     10325     10326     10322     10325     10327
     10322     10325     10328     10323     10322     10324     10323     10322     10325
     10324     10322     10325     10325     10328     10329     10325     10328     10330
     10325     10328     10331     10326     10325     10327     10326     10325     10328
     10327     10325     10328     10328     10331     10332     10328     10331     10333
     10328     10331     10334     10329     10328     10330     10329     10328     10331
     10330     10328     10331     10331     10334     10335     10331     10334     10336
     10331     10334     10337     10332     10331     10333     10332     10331     10334
     10333     10331     10334     10335     10334     10336     10335     10334     10337
     10336     10334     10337     10338     10341     10342     10338     10341     10343
     10338     10341     10344     10339     10338     10340     10339     10338     10341
     10340     10338     10341     10341     10344     10345     10341     10344     10346
     10341     10344     10347     10342     10341     10343     10342     10341     10344
     10343     10341     10344     10344     10347     10348     10344     10347     10349
     10344     10347     10350     10345     10344     10346     10345     10344     10347
     10346     10344     10347     10347     10350     10351     10347     10350     10352
     10347     10350     10353     10348     10347     10349     10348     10347     10350
     10349     10347     10350     10350     10353     10354     10350     10353     10355
     10350     10353     10356     10351     10350     10352     10351     10350     10353
     10352     10350     10353     10353     10356     10357     10353     10356     10358
     10353     10356     10359     10354     10353     10355     10354     10353     10356
     10355     10353     10356     10356     10359     10360     10356     10359     10361
     10356     10359     10362     10357     10356     10358     10357     10356     10359
     10358     10356     10359     10359     10362     10363     10359     10362     10364
     10359     10362     10365     10360     10359     10361     10360     10359     10362
     10361     10359     10362     10362     10365     10366     10362     10365     10367
     10362     10365     10368     10363     10362     10364     10363     10362     10365
     10364     10362     10365     10365     10368     10369     10365     10368     10370
     10365     10368     10371     10366     10365     10367     10366     10365     10368
     10367     10365     10368     10368     10371     10372     10368     10371     10373
     10368     10371     10374     10369     10368     10370     10369     10368     10371
     10370     10368     10371     10371     10374     10375     10371     10374     10376
     10371     10374     10377     10372     10371     10373     10372     10371     10374
     10373     10371     10374     10374     10377     10378     10374     10377     10379
     10374     10377     10380     10375     10374     10376     10375     10374     10377
     10376     10374     10377     10377     10380     10381     10377     10380     10382
     10377     10380     10383     10378     10377     10379     10378     10377     10380
     10379     10377     10380     10380     10383     10384     10380     10383     10385
     10380     10383     10386     10381     10380     10382     10381     10380     10383
     10382     10380     10383     10384     10383     10385     10384     10383     10386
     10385     10383     10386     10387     10391     10392     10387     10391     10393
     10387     10391     10396     10388     10387     10389     10388     10387     10390
     10388     10387     10391     10389     10387     10390     10389     10387     10391
     10390     10387     10391     10391     10393     10394     10391     10393     10395
     10391     10396     10397     10391     10396     10398     10391     10396     10402
     10392     10391     10393     10392     10391     10396     10393     10391     10396
     10394     10393     10395     10396     10402     10399     10397     10396     10398
     10397     10396     10402     10398     10396     10402     10399     10403     10404
     10400     10399     10401     10400     10399     10402     10400     10399     10403
     10401     10399     10402     10401     10399     10403     10402     10399     10403
     10403     10404     10405     10403     10404     10406     10403     10404     10407
     10404     10407     10408     10404     10407     10409     10404     10407     10415
     10405     10404     10406     10405     10404     10407     10406     10404     10407
     10407     10409     10410     10407     10415     10416     10407     10415     10417
     10407     10415     10418     10408     10407     10409     10408     10407     10415
     10409     10407     10415     10409     10410     10411     10409     10410     10412
     10410     10412     10413     10410     10412     10414     10410     10412     10424
     10411     10410     10412     10412     10424     10425     10412     10424     10426
     10412     10424     10427     10413     10412     10414     10413     10412     10424
     10414     10412     10424     10415     10418     10419     10416     10415     10417
     10416     10415     10418     10417     10415     10418     10418     10419     10420
     10418     10419     10421     10419     10421     10422     10419     10421     10423
     10419     10421     10471     10420     10419     10421     10421     10471     10472
     10421     10471     10473     10421     10471     10474     10422     10421     10423
     10422     10421     10471     10423     10421     10471     10424     10427     10428
     10424     10427     10429     10424     10427     10430     10425     10424     10426
     10425     10424     10427     10426     10424     10427     10427     10430     10431
     10427     10430     10432     10428     10427     10429     10428     10427     10430
     10429     10427     10430     10430     10432     10433     10430     10432     10434
     10431     10430     10432     10432     10434     10435     10432     10434     10436
     10432     10434     10437     10433     10432     10434     10434     10437     10438
     10434     10437     10439     10435     10434     10436     10435     10434     10437
     10436     10434     10437     10437     10439     10440     10437     10439     10441
     10438     10437     10439     10439     10441     10442     10439     10441     10443
     10439     10441     10444     10440     10439     10441     10441     10444     10445
     10441     10444     10446     10442     10441     10443     10442     10441     10444
     10443     10441     10444     10444     10446     10447     10444     10446     10448
     10445     10444     10446     10446     10448     10449     10446     10448     10450
     10446     10448     10451     10447     10446     10448     10448     10451     10452
     10448     10451     10453     10449     10448     10450     10449     10448     10451
     10450     10448     10451     10451     10453     10454     10451     10453     10455
     10452     10451     10453     10453     10455     10456     10453     10455     10457
     10453     10455     10458     10454     10453     10455     10455     10458     10459
     10455     10458     10460     10455     10458     10461     10456     10455     10457
     10456     10455     10458     10457     10455     10458     10458     10461     10462
     10458     10461     10463     10458     10461     10464     10459     10458     10460
     10459     10458     10461     10460     10458     10461     10461     10464     10465
     10461     10464     10466     10461     10464     10467     10462     10461     10463
     10462     10461     10464     10463     10461     10464     10464     10467     10468
     10464     10467     10469     10464     10467     10470     10465     10464     10466
     10465     10464     10467     10466     10464     10467     10468     10467     10469
     10468     10467     10470     10469     10467     10470     10471     10474     10475
     10471     10474     10476     10471     10474     10477     10472     10471     10473
     10472     10471     10474     10473     10471     10474     10474     10477     10478
     10474     10477     10479     10474     10477     10480     10475     10474     10476
     10475     10474     10477     10476     10474     10477     10477     10480     10481
     10477     10480     10482     10477     10480     10483     10478     10477     10479
     10478     10477     10480     10479     10477     10480     10480     10483     10484
     10480     10483     10485     10480     10483     10486     10481     10480     10482
     10481     10480     10483     10482     10480     10483     10483     10486     10487
     10483     10486     10488     10483     10486     10489     10484     10483     10485
     10484     10483     10486     10485     10483     10486     10486     10489     10490
     10486     10489     10491     10486     10489     10492     10487     10486     10488
     10487     10486     10489     10488     10486     10489     10489     10492     10493
     10489     10492     10494     10489     10492     10495     10490     10489     10491
     10490     10489     10492     10491     10489     10492     10492     10495     10496
     10492     10495     10497     10492     10495     10498     10493     10492     10494
     10493     10492     10495     10494     10492     10495     10495     10498     10499
     10495     10498     10500     10495     10498     10501     10496     10495     10497
     10496     10495     10498     10497     10495     10498     10498     10501     10502
     10498     10501     10503     10498     10501     10504     10499     10498     10500
     10499     10498     10501     10500     10498     10501     10501     10504     10505
     10501     10504     10506     10501     10504     10507     10502     10501     10503
     10502     10501     10504     10503     10501     10504     10504     10507     10508
     10504     10507     10509     10504     10507     10510     10505     10504     10506
     10505     10504     10507     10506     10504     10507     10507     10510     10511
     10507     10510     10512     10507     10510     10513     10508     10507     10509
     10508     10507     10510     10509     10507     10510     10510     10513     10514
     10510     10513     10515     10510     10513     10516     10511     10510     10512
     10511     10510     10513     10512     10510     10513     10513     10516     10517
     10513     10516     10518     10513     10516     10519     10514     10513     10515
     10514     10513     10516     10515     10513     10516     10517     10516     10518
     10517     10516     10519     10518     10516     10519     10520     10522     10523
     10520     10524     10525     10520     10524     10526     10520     10524     10527
     10520     10566     10563     10520     10566     10567     10520     10566     10568
     10521     10520     10522     10521     10520     10524     10521     10520     10566
     10522     10520     10524     10522     10520     10566     10524     10520     10566
     10524     10527     10528     10524     10527     10558     10525     10524     10526
     10525     10524     10527     10526     10524     10527     10527     10528     10529
     10527     10528     10530     10527     10558     10556     10527     10558     10559
     10527     10558     10563     10528     10527     10558     10528     10530     10531
     10528     10530     10532     10528     10530     10533     10529     10528     10530
     10530     10533     10534     10530     10533     10535     10530     10533     10556
     10531     10530     10532     10531     10530     10533     10532     10530     10533
     10533     10535     10536     10533     10535     10537     10533     10535     10545
     10533     10556     10553     10533     10556     10557     10533     10556     10558
     10534     10533     10535     10534     10533     10556     10535     10533     10556
     10535     10537     10538     10535     10537     10539     10535     10537     10540
     10535     10545     10543     10535     10545     10546     10535     10545     10550
     10536     10535     10537     10536     10535     10545     10537     10535     10545
     10537     10540     10541     10537     10540     10542     10537     10540     10543
     10538     10537     10539     10538     10537     10540     10539     10537     10540
     10540     10543     10544     10540     10543     10545     10540     10543     10569
     10541     10540     10542     10541     10540     10543     10542     10540     10543
     10543     10545     10546     10543     10545     10550     10543     10569     10570
     10543     10569     10571     10543     10569     10575     10544     10543     10545
     10544     10543     10569     10545     10543     10569     10545     10546     10547
     10545     10546     10548     10545     10546     10549     10545     10550     10551
     10545     10550     10552     10545     10550     10553     10546     10545     10550
     10547     10546     10548     10547     10546     10549     10548     10546     10549
     10550     10553     10554     10550     10553     10555     10550     10553     10556
     10551     10550     10552     10551     10550     10553     10552     10550     10553
     10553     10556     10557     10553     10556     10558     10554     10553     10555
     10554     10553     10556     10555     10553     10556     10556     10558     10559
     10556     10558     10563     10557     10556     10558     10558     10559     10560
     10558     10559     10561     10558     10559     10562     10558     10563     10564
     10558     10563     10565     10558     10563     10566     10559     10558     10563
     10560     10559     10561     10560     10559     10562     10561     10559     10562
     10563     10566     10567     10563     10566     10568     10564     10563     10565
     10564     10563     10566     10565     10563     10566     10567     10566     10568
     10569     10571     10572     10569     10571     10573     10569     10571     10574
     10569     10575     10576     10569     10575     10577     10569     10575     10578
     10570     10569     10571     10570     10569     10575     10571     10569     10575
     10572     10571     10573     10572     10571     10574     10573     10571     10574
     10575     10578     10579     10575     10578     10580     10575     10578     10581
     10576     10575     10577     10576     10575     10578     10577     10575     10578
     10578     10581     10582     10578     10581     10583     10578     10581     10584
     10579     10578     10580     10579     10578     10581     10580     10578     10581
     10581     10584     10585     10581     10584     10586     10581     10584     10590
     10582     10581     10583     10582     10581     10584     10583     10581     10584
     10584     10586     10587     10584     10586     10588     10584     10586     10589
     10584     10590     10591     10584     10590     10592     10584     10590     10593
     10585     10584     10586     10585     10584     10590     10586     10584     10590
     10587     10586     10588     10587     10586     10589     10588     10586     10589
     10591     10590     10592     10591     10590     10593     10592     10590     10593
     10594     10598     10599     10594     10598     10600     10594     10598     10601
     10595     10594     10596     10595     10594     10597     10595     10594     10598
     10596     10594     10597     10596     10594     10598     10597     10594     10598
     10598     10601     10602     10598     10601     10603     10598     10601     10607
     10599     10598     10600     10599     10598     10601     10600     10598     10601
     10601     10607     10604     10602     10601     10603     10602     10601     10607
     10603     10601     10607     10604     10608     10609     10605     10604     10606
     10605     10604     10607     10605     10604     10608     10606     10604     10607
     10606     10604     10608     10607     10604     10608     10608     10609     10610
     10608     10609     10611     10608     10609     10612     10609     10612     10613
     10609     10612     10614     10609     10612     10620     10610     10609     10611
     10610     10609     10612     10611     10609     10612     10612     10614     10615
     10612     10620     10621     10612     10620     10622     10612     10620     10623
     10613     10612     10614     10613     10612     10620     10614     10612     10620
     10614     10615     10616     10614     10615     10617     10615     10617     10618
     10615     10617     10619     10615     10617     10629     10616     10615     10617
     10617     10629     10630     10617     10629     10631     10617     10629     10632
     10618     10617     10619     10618     10617     10629     10619     10617     10629
     10620     10623     10624     10621     10620     10622     10621     10620     10623
     10622     10620     10623     10623     10624     10625     10623     10624     10626
     10624     10626     10627     10624     10626     10628     10624     10626     10676
     10625     10624     10626     10626     10676     10677     10626     10676     10678
     10626     10676     10679     10627     10626     10628     10627     10626     10676
     10628     10626     10676     10629     10632     10633     10629     10632     10634
     10629     10632     10635     10630     10629     10631     10630     10629     10632
     10631     10629     10632     10632     10635     10636     10632     10635     10637
     10633     10632     10634     10633     10632     10635     10634     10632     10635
     10635     10637     10638     10635     10637     10639     10636     10635     10637
     10637     10639     10640     10637     10639     10641     10637     10639     10642
     10638     10637     10639     10639     10642     10643     10639     10642     10644
     10640     10639     10641     10640     10639     10642     10641     10639     10642
     10642     10644     10645     10642     10644     10646     10643     10642     10644
     10644     10646     10647     10644     10646     10648     10644     10646     10649
     10645     10644     10646     10646     10649     10650     10646     10649     10651
     10647     10646     10648     10647     10646     10649     10648     10646     10649
     10649     10651     10652     10649     10651     10653     10650     10649     10651
     10651     10653     10654     10651     10653     10655     10651     10653     10656
     10652     10651     10653     10653     10656     10657     10653     10656     10658
     10654     10653     10655     10654     10653     10656     10655     10653     10656
     10656     10658     10659     10656     10658     10660     10657     10656     10658
     10658     10660     10661     10658     10660     10662     10658     10660     10663
     10659     10658     10660     10660     10663     10664     10660     10663     10665
     10660     10663     10666     10661     10660     10662     10661     10660     10663
     10662     10660     10663     10663     10666     10667     10663     10666     10668
     10663     10666     10669     10664     10663     10665     10664     10663     10666
     10665     10663     10666     10666     10669     10670     10666     10669     10671
     10666     10669     10672     10667     10666     10668     10667     10666     10669
     10668     10666     10669     10669     10672     10673     10669     10672     10674
     10669     10672     10675     10670     10669     10671     10670     10669     10672
     10671     10669     10672     10673     10672     10674     10673     10672     10675
     10674     10672     10675     10676     10679     10680     10676     10679     10681
     10676     10679     10682     10677     10676     10678     10677     10676     10679
     10678     10676     10679     10679     10682     10683     10679     10682     10684
     10679     10682     10685     10680     10679     10681     10680     10679     10682
     10681     10679     10682     10682     10685     10686     10682     10685     10687
     10682     10685     10688     10683     10682     10684     10683     10682     10685
     10684     10682     10685     10685     10688     10689     10685     10688     10690
     10685     10688     10691     10686     10685     10687     10686     10685     10688
     10687     10685     10688     10688     10691     10692     10688     10691     10693
     10688     10691     10694     10689     10688     10690     10689     10688     10691
     10690     10688     10691     10691     10694     10695     10691     10694     10696
     10691     10694     10697     10692     10691     10693     10692     10691     10694
     10693     10691     10694     10694     10697     10698     10694     10697     10699
     10694     10697     10700     10695     10694     10696     10695     10694     10697
     10696     10694     10697     10697     10700     10701     10697     10700     10702
     10697     10700     10703     10698     10697     10699     10698     10697     10700
     10699     10697     10700     10700     10703     10704     10700     10703     10705
     10700     10703     10706     10701     10700     10702     10701     10700     10703
     10702     10700     10703     10703     10706     10707     10703     10706     10708
     10703     10706     10709     10704     10703     10705     10704     10703     10706
     10705     10703     10706     10706     10709     10710     10706     10709     10711
     10706     10709     10712     10707     10706     10708     10707     10706     10709
     10708     10706     10709     10709     10712     10713     10709     10712     10714
     10709     10712     10715     10710     10709     10711     10710     10709     10712
     10711     10709     10712     10712     10715     10716     10712     10715     10717
     10712     10715     10718     10713     10712     10714     10713     10712     10715
     10714     10712     10715     10715     10718     10719     10715     10718     10720
     10715     10718     10721     10716     10715     10717     10716     10715     10718
     10717     10715     10718     10718     10721     10722     10718     10721     10723
     10718     10721     10724     10719     10718     10720     10719     10718     10721
     10720     10718     10721     10722     10721     10723     10722     10721     10724
     10723     10721     10724     10725     10729     10730     10725     10729     10731
     10725     10729     10734     10726     10725     10727     10726     10725     10728
     10726     10725     10729     10727     10725     10728     10727     10725     10729
     10728     10725     10729     10729     10731     10732     10729     10731     10733
     10729     10734     10735     10729     10734     10736     10729     10734     10740
     10730     10729     10731     10730     10729     10734     10731     10729     10734
     10732     10731     10733     10734     10740     10737     10735     10734     10736
     10735     10734     10740     10736     10734     10740     10737     10741     10742
     10738     10737     10739     10738     10737     10740     10738     10737     10741
     10739     10737     10740     10739     10737     10741     10740     10737     10741
     10741     10742     10743     10741     10742     10744     10741     10742     10745
     10742     10745     10746     10742     10745     10747     10742     10745     10753
     10743     10742     10744     10743     10742     10745     10744     10742     10745
     10745     10747     10748     10745     10753     10754     10745     10753     10755
     10745     10753     10756     10746     10745     10747     10746     10745     10753
     10747     10745     10753     10747     10748     10749     10747     10748     10750
     10748     10750     10751     10748     10750     10752     10748     10750     10762
     10749     10748     10750     10750     10762     10763     10750     10762     10764
     10750     10762     10765     10751     10750     10752     10751     10750     10762
     10752     10750     10762     10753     10756     10757     10754     10753     10755
     10754     10753     10756     10755     10753     10756     10756     10757     10758
     10756     10757     10759     10757     10759     10760     10757     10759     10761
     10757     10759     10809     10758     10757     10759     10759     10809     10810
     10759     10809     10811     10759     10809     10812     10760     10759     10761
     10760     10759     10809     10761     10759     10809     10762     10765     10766
     10762     10765     10767     10762     10765     10768     10763     10762     10764
     10763     10762     10765     10764     10762     10765     10765     10768     10769
     10765     10768     10770     10766     10765     10767     10766     10765     10768
     10767     10765     10768     10768     10770     10771     10768     10770     10772
     10769     10768     10770     10770     10772     10773     10770     10772     10774
     10770     10772     10775     10771     10770     10772     10772     10775     10776
     10772     10775     10777     10773     10772     10774     10773     10772     10775
     10774     10772     10775     10775     10777     10778     10775     10777     10779
     10776     10775     10777     10777     10779     10780     10777     10779     10781
     10777     10779     10782     10778     10777     10779     10779     10782     10783
     10779     10782     10784     10780     10779     10781     10780     10779     10782
     10781     10779     10782     10782     10784     10785     10782     10784     10786
     10783     10782     10784     10784     10786     10787     10784     10786     10788
     10784     10786     10789     10785     10784     10786     10786     10789     10790
     10786     10789     10791     10787     10786     10788     10787     10786     10789
     10788     10786     10789     10789     10791     10792     10789     10791     10793
     10790     10789     10791     10791     10793     10794     10791     10793     10795
     10791     10793     10796     10792     10791     10793     10793     10796     10797
     10793     10796     10798     10793     10796     10799     10794     10793     10795
     10794     10793     10796     10795     10793     10796     10796     10799     10800
     10796     10799     10801     10796     10799     10802     10797     10796     10798
     10797     10796     10799     10798     10796     10799     10799     10802     10803
     10799     10802     10804     10799     10802     10805     10800     10799     10801
     10800     10799     10802     10801     10799     10802     10802     10805     10806
     10802     10805     10807     10802     10805     10808     10803     10802     10804
     10803     10802     10805     10804     10802     10805     10806     10805     10807
     10806     10805     10808     10807     10805     10808     10809     10812     10813
     10809     10812     10814     10809     10812     10815     10810     10809     10811
     10810     10809     10812     10811     10809     10812     10812     10815     10816
     10812     10815     10817     10812     10815     10818     10813     10812     10814
     10813     10812     10815     10814     10812     10815     10815     10818     10819
     10815     10818     10820     10815     10818     10821     10816     10815     10817
     10816     10815     10818     10817     10815     10818     10818     10821     10822
     10818     10821     10823     10818     10821     10824     10819     10818     10820
     10819     10818     10821     10820     10818     10821     10821     10824     10825
     10821     10824     10826     10821     10824     10827     10822     10821     10823
     10822     10821     10824     10823     10821     10824     10824     10827     10828
     10824     10827     10829     10824     10827     10830     10825     10824     10826
     10825     10824     10827     10826     10824     10827     10827     10830     10831
     10827     10830     10832     10827     10830     10833     10828     10827     10829
     10828     10827     10830     10829     10827     10830     10830     10833     10834
     10830     10833     10835     10830     10833     10836     10831     10830     10832
     10831     10830     10833     10832     10830     10833     10833     10836     10837
     10833     10836     10838     10833     10836     10839     10834     10833     10835
     10834     10833     10836     10835     10833     10836     10836     10839     10840
     10836     10839     10841     10836     10839     10842     10837     10836     10838
     10837     10836     10839     10838     10836     10839     10839     10842     10843
     10839     10842     10844     10839     10842     10845     10840     10839     10841
     10840     10839     10842     10841     10839     10842     10842     10845     10846
     10842     10845     10847     10842     10845     10848     10843     10842     10844
     10843     10842     10845     10844     10842     10845     10845     10848     10849
     10845     10848     10850     10845     10848     10851     10846     10845     10847
     10846     10845     10848     10847     10845     10848     10848     10851     10852
     10848     10851     10853     10848     10851     10854     10849     10848     10850
     10849     10848     10851     10850     10848     10851     10851     10854     10855
     10851     10854     10856     10851     10854     10857     10852     10851     10853
     10852     10851     10854     10853     10851     10854     10855     10854     10856
     10855     10854     10857     10856     10854     10857     10858     10859     10860
     10858     10859     10861     10858     10859     10862     10858     10863     10864
     10858     10863     10865     10858     10863     10866     10858     10867     10868
     10858     10867     10869     10858     10867     10870     10858     10871     10872
     10858     10871     10873     10858     10871     10874     10859     10858     10863
     10859     10858     10867     10859     10858     10871     10860     10859     10861
     10860     10859     10862     10861     10859     10862     10863     10858     10867
     10863     10858     10871     10864     10863     10865     10864     10863     10866
     10865     10863     10866     10867     10858     10871     10868     10867     10869
     10868     10867     10870     10869     10867     10870     10871     10874     10875
     10871     10874     10876     10871     10874     10881     10872     10871     10873
     10872     10871     10874     10873     10871     10874     10874     10881     10877
     10875     10874     10876     10875     10874     10881     10876     10874     10881
     10877     10880     10882     10878     10877     10879     10878     10877     10880
     10878     10877     10881     10879     10877     10880     10879     10877     10881
     10880     10877     10881     10880     10882     10883     10880     10882     10884
     10880     10882     10887     10882     10887     10885     10882     10887     10888
     10882     10887     10889     10883     10882     10884     10883     10882     10887
     10884     10882     10887     10885     10887     10888     10885     10887     10889
     10885     10937     10938     10885     10937     10939     10886     10885     10887
     10886     10885     10937     10887     10885     10937     10887     10889     10890
     10887     10889     10891     10887     10889     10893     10888     10887     10889
     10889     10891     10892     10889     10893     10894     10889     10893     10895
     10890     10889     10891     10890     10889     10893     10891     10889     10893
     10893     10895     10896     10893     10895     10897     10894     10893     10895
     10895     10897     10898     10895     10897     10899     10895     10897     10900
     10896     10895     10897     10897     10900     10901     10897     10900     10902
     10897     10900     10903     10898     10897     10899     10898     10897     10900
     10899     10897     10900     10900     10903     10904     10900     10903     10905
     10900     10903     10906     10901     10900     10902     10901     10900     10903
     10902     10900     10903     10903     10906     10907     10903     10906     10908
     10903     10906     10909     10904     10903     10905     10904     10903     10906
     10905     10903     10906     10906     10909     10910     10906     10909     10911
     10906     10909     10912     10907     10906     10908     10907     10906     10909
     10908     10906     10909     10909     10912     10913     10909     10912     10914
     10909     10912     10915     10910     10909     10911     10910     10909     10912
     10911     10909     10912     10912     10915     10916     10912     10915     10917
     10912     10915     10918     10913     10912     10914     10913     10912     10915
     10914     10912     10915     10915     10918     10919     10915     10918     10920
     10915     10918     10921     10916     10915     10917     10916     10915     10918
     10917     10915     10918     10918     10921     10922     10918     10921     10923
     10918     10921     10924     10919     10918     10920     10919     10918     10921
     10920     10918     10921     10921     10924     10925     10921     10924     10926
     10921     10924     10927     10922     10921     10923     10922     10921     10924
     10923     10921     10924     10924     10927     10928     10924     10927     10929
     10924     10927     10930     10925     10924     10926     10925     10924     10927
     10926     10924     10927     10927     10930     10931     10927     10930     10932
     10927     10930     10933     10928     10927     10929     10928     10927     10930
     10929     10927     10930     10930     10933     10934     10930     10933     10935
     10930     10933     10936     10931     10930     10932     10931     10930     10933
     10932     10930     10933     10934     10933     10935     10934     10933     10936
     10935     10933     10936     10937     10939     10940     10937     10939     10941
     10937     10939     10942     10938     10937     10939     10939     10942     10943
     10939     10942     10944     10939     10942     10945     10940     10939     10941
     10940     10939     10942     10941     10939     10942     10942     10945     10946
     10942     10945     10947     10942     10945     10948     10943     10942     10944
     10943     10942     10945     10944     10942     10945     10945     10948     10949
     10945     10948     10950     10945     10948     10951     10946     10945     10947
     10946     10945     10948     10947     10945     10948     10948     10951     10952
     10948     10951     10953     10948     10951     10954     10949     10948     10950
     10949     10948     10951     10950     10948     10951     10951     10954     10955
     10951     10954     10956     10951     10954     10957     10952     10951     10953
     10952     10951     10954     10953     10951     10954     10954     10957     10958
     10954     10957     10959     10954     10957     10960     10955     10954     10956
     10955     10954     10957     10956     10954     10957     10957     10960     10961
     10957     10960     10962     10958     10957     10959     10958     10957     10960
     10959     10957     10960     10960     10962     10963     10960     10962     10964
     10961     10960     10962     10962     10964     10965     10962     10964     10966
     10962     10964     10967     10963     10962     10964     10964     10967     10968
     10964     10967     10969     10964     10967     10970     10965     10964     10966
     10965     10964     10967     10966     10964     10967     10967     10970     10971
     10967     10970     10972     10967     10970     10973     10968     10967     10969
     10968     10967     10970     10969     10967     10970     10970     10973     10974
     10970     10973     10975     10970     10973     10976     10971     10970     10972
     10971     10970     10973     10972     10970     10973     10973     10976     10977
     10973     10976     10978     10973     10976     10979     10974     10973     10975
     10974     10973     10976     10975     10973     10976     10976     10979     10980
     10976     10979     10981     10976     10979     10982     10977     10976     10978
     10977     10976     10979     10978     10976     10979     10979     10982     10983
     10979     10982     10984     10979     10982     10985     10980     10979     10981
     10980     10979     10982     10981     10979     10982     10982     10985     10986
     10982     10985     10987     10982     10985     10988     10983     10982     10984
     10983     10982     10985     10984     10982     10985     10986     10985     10987
     10986     10985     10988     10987     10985     10988     10989     10990     10991
     10989     10990     10992     10989     10990     10993     10989     10994     10995
     10989     10994     10996     10989     10994     10997     10989     10998     10999
     10989     10998     11000     10989     10998     11001     10989     11002     11003
     10989     11002     11004     10989     11002     11005     10990     10989     10994
     10990     10989     10998     10990     10989     11002     10991     10990     10992
     10991     10990     10993     10992     10990     10993     10994     10989     10998
     10994     10989     11002     10995     10994     10996     10995     10994     10997
     10996     10994     10997     10998     10989     11002     10999     10998     11000
     10999     10998     11001     11000     10998     11001     11002     11005     11006
     11002     11005     11007     11002     11005     11011     11003     11002     11004
     11003     11002     11005     11004     11002     11005     11005     11011     11008
     11006     11005     11007     11006     11005     11011     11007     11005     11011
     11008     11012     11013     11009     11008     11010     11009     11008     11011
     11009     11008     11012     11010     11008     11011     11010     11008     11012
     11011     11008     11012     11012     11013     11014     11012     11013     11015
     11012     11013     11016     11013     11016     11017     11013     11016     11018
     11013     11016     11024     11014     11013     11015     11014     11013     11016
     11015     11013     11016     11016     11018     11019     11016     11024     11025
     11016     11024     11026     11016     11024     11027     11017     11016     11018
     11017     11016     11024     11018     11016     11024     11018     11019     11020
     11018     11019     11021     11019     11021     11022     11019     11021     11023
     11019     11021     11033     11020     11019     11021     11021     11033     11034
     11021     11033     11035     11021     11033     11036     11022     11021     11023
     11022     11021     11033     11023     11021     11033     11024     11027     11028
     11025     11024     11026     11025     11024     11027     11026     11024     11027
     11027     11028     11029     11027     11028     11030     11028     11030     11031
     11028     11030     11032     11028     11030     11078     11029     11028     11030
     11030     11078     11079     11030     11078     11080     11030     11078     11081
     11031     11030     11032     11031     11030     11078     11032     11030     11078
     11033     11036     11037     11033     11036     11038     11033     11036     11039
     11034     11033     11035     11034     11033     11036     11035     11033     11036
     11036     11039     11040     11036     11039     11041     11036     11039     11042
     11037     11036     11038     11037     11036     11039     11038     11036     11039
     11039     11042     11043     11039     11042     11044     11039     11042     11045
     11040     11039     11041     11040     11039     11042     11041     11039     11042
     11042     11045     11046     11042     11045     11047     11042     11045     11048
     11043     11042     11044     11043     11042     11045     11044     11042     11045
     11045     11048     11049     11045     11048     11050     11045     11048     11051
     11046     11045     11047     11046     11045     11048     11047     11045     11048
     11048     11051     11052     11048     11051     11053     11049     11048     11050
     11049     11048     11051     11050     11048     11051     11051     11053     11054
     11051     11053     11055     11052     11051     11053     11053     11055     11056
     11053     11055     11057     11053     11055     11058     11054     11053     11055
     11055     11058     11059     11055     11058     11060     11056     11055     11057
     11056     11055     11058     11057     11055     11058     11058     11060     11061
     11058     11060     11062     11059     11058     11060     11060     11062     11063
     11060     11062     11064     11060     11062     11065     11061     11060     11062
     11062     11065     11066     11062     11065     11067     11062     11065     11068
     11063     11062     11064     11063     11062     11065     11064     11062     11065
     11065     11068     11069     11065     11068     11070     11065     11068     11071
     11066     11065     11067     11066     11065     11068     11067     11065     11068
     11068     11071     11072     11068     11071     11073     11068     11071     11074
     11069     11068     11070     11069     11068     11071     11070     11068     11071
     11071     11074     11075     11071     11074     11076     11071     11074     11077
     11072     11071     11073     11072     11071     11074     11073     11071     11074
     11075     11074     11076     11075     11074     11077     11076     11074     11077
     11078     11081     11082     11078     11081     11083     11078     11081     11084
     11079     11078     11080     11079     11078     11081     11080     11078     11081
     11081     11084     11085     11081     11084     11086     11081     11084     11087
     11082     11081     11083     11082     11081     11084     11083     11081     11084
     11084     11087     11088     11084     11087     11089     11084     11087     11090
     11085     11084     11086     11085     11084     11087     11086     11084     11087
     11087     11090     11091     11087     11090     11092     11087     11090     11093
     11088     11087     11089     11088     11087     11090     11089     11087     11090
     11090     11093     11094     11090     11093     11095     11090     11093     11096
     11091     11090     11092     11091     11090     11093     11092     11090     11093
     11093     11096     11097     11093     11096     11098     11093     11096     11099
     11094     11093     11095     11094     11093     11096     11095     11093     11096
     11096     11099     11100     11096     11099     11101     11096     11099     11102
     11097     11096     11098     11097     11096     11099     11098     11096     11099
     11099     11102     11103     11099     11102     11104     11099     11102     11105
     11100     11099     11101     11100     11099     11102     11101     11099     11102
     11102     11105     11106     11102     11105     11107     11102     11105     11108
     11103     11102     11104     11103     11102     11105     11104     11102     11105
     11105     11108     11109     11105     11108     11110     11105     11108     11111
     11106     11105     11107     11106     11105     11108     11107     11105     11108
     11108     11111     11112     11108     11111     11113     11108     11111     11114
     11109     11108     11110     11109     11108     11111     11110     11108     11111
     11111     11114     11115     11111     11114     11116     11111     11114     11117
     11112     11111     11113     11112     11111     11114     11113     11111     11114
     11114     11117     11118     11114     11117     11119     11114     11117     11120
     11115     11114     11116     11115     11114     11117     11116     11114     11117
     11117     11120     11121     11117     11120     11122     11117     11120     11123
     11118     11117     11119     11118     11117     11120     11119     11117     11120
     11120     11123     11124     11120     11123     11125     11120     11123     11126
     11121     11120     11122     11121     11120     11123     11122     11120     11123
     11124     11123     11125     11124     11123     11126     11125     11123     11126
     11127     11131     11132     11127     11131     11133     11127     11131     11136
     11128     11127     11129     11128     11127     11130     11128     11127     11131
     11129     11127     11130     11129     11127     11131     11130     11127     11131
     11131     11133     11134     11131     11133     11135     11131     11136     11137
     11131     11136     11138     11131     11136     11142     11132     11131     11133
     11132     11131     11136     11133     11131     11136     11134     11133     11135
     11136     11142     11139     11137     11136     11138     11137     11136     11142
     11138     11136     11142     11139     11143     11144     11140     11139     11141
     11140     11139     11142     11140     11139     11143     11141     11139     11142
     11141     11139     11143     11142     11139     11143     11143     11144     11145
     11143     11144     11146     11143     11144     11147     11144     11147     11148
     11144     11147     11149     11144     11147     11155     11145     11144     11146
     11145     11144     11147     11146     11144     11147     11147     11149     11150
     11147     11155     11156     11147     11155     11157     11147     11155     11158
     11148     11147     11149     11148     11147     11155     11149     11147     11155
     11149     11150     11151     11149     11150     11152     11150     11152     11153
     11150     11152     11154     11150     11152     11164     11151     11150     11152
     11152     11164     11165     11152     11164     11166     11152     11164     11167
     11153     11152     11154     11153     11152     11164     11154     11152     11164
     11155     11158     11159     11156     11155     11157     11156     11155     11158
     11157     11155     11158     11158     11159     11160     11158     11159     11161
     11159     11161     11162     11159     11161     11163     11159     11161     11211
     11160     11159     11161     11161     11211     11212     11161     11211     11213
     11161     11211     11214     11162     11161     11163     11162     11161     11211
     11163     11161     11211     11164     11167     11168     11164     11167     11169
     11164     11167     11170     11165     11164     11166     11165     11164     11167
     11166     11164     11167     11167     11170     11171     11167     11170     11172
     11168     11167     11169     11168     11167     11170     11169     11167     11170
     11170     11172     11173     11170     11172     11174     11171     11170     11172
     11172     11174     11175     11172     11174     11176     11172     11174     11177
     11173     11172     11174     11174     11177     11178     11174     11177     11179
     11175     11174     11176     11175     11174     11177     11176     11174     11177
     11177     11179     11180     11177     11179     11181     11178     11177     11179
     11179     11181     11182     11179     11181     11183     11179     11181     11184
     11180     11179     11181     11181     11184     11185     11181     11184     11186
     11182     11181     11183     11182     11181     11184     11183     11181     11184
     11184     11186     11187     11184     11186     11188     11185     11184     11186
     11186     11188     11189     11186     11188     11190     11186     11188     11191
     11187     11186     11188     11188     11191     11192     11188     11191     11193
     11189     11188     11190     11189     11188     11191     11190     11188     11191
     11191     11193     11194     11191     11193     11195     11192     11191     11193
     11193     11195     11196     11193     11195     11197     11193     11195     11198
     11194     11193     11195     11195     11198     11199     11195     11198     11200
     11195     11198     11201     11196     11195     11197     11196     11195     11198
     11197     11195     11198     11198     11201     11202     11198     11201     11203
     11198     11201     11204     11199     11198     11200     11199     11198     11201
     11200     11198     11201     11201     11204     11205     11201     11204     11206
     11201     11204     11207     11202     11201     11203     11202     11201     11204
     11203     11201     11204     11204     11207     11208     11204     11207     11209
     11204     11207     11210     11205     11204     11206     11205     11204     11207
     11206     11204     11207     11208     11207     11209     11208     11207     11210
     11209     11207     11210     11211     11214     11215     11211     11214     11216
     11211     11214     11217     11212     11211     11213     11212     11211     11214
     11213     11211     11214     11214     11217     11218     11214     11217     11219
     11214     11217     11220     11215     11214     11216     11215     11214     11217
     11216     11214     11217     11217     11220     11221     11217     11220     11222
     11217     11220     11223     11218     11217     11219     11218     11217     11220
     11219     11217     11220     11220     11223     11224     11220     11223     11225
     11220     11223     11226     11221     11220     11222     11221     11220     11223
     11222     11220     11223     11223     11226     11227     11223     11226     11228
     11223     11226     11229     11224     11223     11225     11224     11223     11226
     11225     11223     11226     11226     11229     11230     11226     11229     11231
     11226     11229     11232     11227     11226     11228     11227     11226     11229
     11228     11226     11229     11229     11232     11233     11229     11232     11234
     11229     11232     11235     11230     11229     11231     11230     11229     11232
     11231     11229     11232     11232     11235     11236     11232     11235     11237
     11232     11235     11238     11233     11232     11234     11233     11232     11235
     11234     11232     11235     11235     11238     11239     11235     11238     11240
     11235     11238     11241     11236     11235     11237     11236     11235     11238
     11237     11235     11238     11238     11241     11242     11238     11241     11243
     11238     11241     11244     11239     11238     11240     11239     11238     11241
     11240     11238     11241     11241     11244     11245     11241     11244     11246
     11241     11244     11247     11242     11241     11243     11242     11241     11244
     11243     11241     11244     11244     11247     11248     11244     11247     11249
     11244     11247     11250     11245     11244     11246     11245     11244     11247
     11246     11244     11247     11247     11250     11251     11247     11250     11252
     11247     11250     11253     11248     11247     11249     11248     11247     11250
     11249     11247     11250     11250     11253     11254     11250     11253     11255
     11250     11253     11256     11251     11250     11252     11251     11250     11253
     11252     11250     11253     11253     11256     11257     11253     11256     11258
     11253     11256     11259     11254     11253     11255     11254     11253     11256
     11255     11253     11256     11257     11256     11258     11257     11256     11259
     11258     11256     11259     11260     11264     11265     11260     11264     11266
     11260     11264     11267     11261     11260     11262     11261     11260     11263
     11261     11260     11264     11262     11260     11263     11262     11260     11264
     11263     11260     11264     11264     11267     11268     11264     11267     11269
     11264     11267     11273     11265     11264     11266     11265     11264     11267
     11266     11264     11267     11267     11273     11270     11268     11267     11269
     11268     11267     11273     11269     11267     11273     11270     11274     11275
     11271     11270     11272     11271     11270     11273     11271     11270     11274
     11272     11270     11273     11272     11270     11274     11273     11270     11274
     11274     11275     11276     11274     11275     11277     11274     11275     11278
     11275     11278     11279     11275     11278     11280     11275     11278     11286
     11276     11275     11277     11276     11275     11278     11277     11275     11278
     11278     11280     11281     11278     11286     11287     11278     11286     11288
     11278     11286     11289     11279     11278     11280     11279     11278     11286
     11280     11278     11286     11280     11281     11282     11280     11281     11283
     11281     11283     11284     11281     11283     11285     11281     11283     11295
     11282     11281     11283     11283     11295     11296     11283     11295     11297
     11283     11295     11298     11284     11283     11285     11284     11283     11295
     11285     11283     11295     11286     11289     11290     11287     11286     11288
     11287     11286     11289     11288     11286     11289     11289     11290     11291
     11289     11290     11292     11290     11292     11293     11290     11292     11294
     11290     11292     11342     11291     11290     11292     11292     11342     11343
     11292     11342     11344     11292     11342     11345     11293     11292     11294
     11293     11292     11342     11294     11292     11342     11295     11298     11299
     11295     11298     11300     11295     11298     11301     11296     11295     11297
     11296     11295     11298     11297     11295     11298     11298     11301     11302
     11298     11301     11303     11298     11301     11304     11299     11298     11300
     11299     11298     11301     11300     11298     11301     11301     11304     11305
     11301     11304     11306     11301     11304     11307     11302     11301     11303
     11302     11301     11304     11303     11301     11304     11304     11307     11308
     11304     11307     11309     11304     11307     11310     11305     11304     11306
     11305     11304     11307     11306     11304     11307     11307     11310     11311
     11307     11310     11312     11307     11310     11313     11308     11307     11309
     11308     11307     11310     11309     11307     11310     11310     11313     11314
     11310     11313     11315     11311     11310     11312     11311     11310     11313
     11312     11310     11313     11313     11315     11316     11313     11315     11317
     11314     11313     11315     11315     11317     11318     11315     11317     11319
     11315     11317     11320     11316     11315     11317     11317     11320     11321
     11317     11320     11322     11317     11320     11323     11318     11317     11319
     11318     11317     11320     11319     11317     11320     11320     11323     11324
     11320     11323     11325     11320     11323     11326     11321     11320     11322
     11321     11320     11323     11322     11320     11323     11323     11326     11327
     11323     11326     11328     11323     11326     11329     11324     11323     11325
     11324     11323     11326     11325     11323     11326     11326     11329     11330
     11326     11329     11331     11326     11329     11332     11327     11326     11328
     11327     11326     11329     11328     11326     11329     11329     11332     11333
     11329     11332     11334     11329     11332     11335     11330     11329     11331
     11330     11329     11332     11331     11329     11332     11332     11335     11336
     11332     11335     11337     11332     11335     11338     11333     11332     11334
     11333     11332     11335     11334     11332     11335     11335     11338     11339
     11335     11338     11340     11335     11338     11341     11336     11335     11337
     11336     11335     11338     11337     11335     11338     11339     11338     11340
     11339     11338     11341     11340     11338     11341     11342     11345     11346
     11342     11345     11347     11342     11345     11348     11343     11342     11344
     11343     11342     11345     11344     11342     11345     11345     11348     11349
     11345     11348     11350     11345     11348     11351     11346     11345     11347
     11346     11345     11348     11347     11345     11348     11348     11351     11352
     11348     11351     11353     11348     11351     11354     11349     11348     11350
     11349     11348     11351     11350     11348     11351     11351     11354     11355
     11351     11354     11356     11351     11354     11357     11352     11351     11353
     11352     11351     11354     11353     11351     11354     11354     11357     11358
     11354     11357     11359     11354     11357     11360     11355     11354     11356
     11355     11354     11357     11356     11354     11357     11357     11360     11361
     11357     11360     11362     11357     11360     11363     11358     11357     11359
     11358     11357     11360     11359     11357     11360     11360     11363     11364
     11360     11363     11365     11360     11363     11366     11361     11360     11362
     11361     11360     11363     11362     11360     11363     11363     11366     11367
     11363     11366     11368     11363     11366     11369     11364     11363     11365
     11364     11363     11366     11365     11363     11366     11366     11369     11370
     11366     11369     11371     11366     11369     11372     11367     11366     11368
     11367     11366     11369     11368     11366     11369     11369     11372     11373
     11369     11372     11374     11369     11372     11375     11370     11369     11371
     11370     11369     11372     11371     11369     11372     11372     11375     11376
     11372     11375     11377     11372     11375     11378     11373     11372     11374
     11373     11372     11375     11374     11372     11375     11375     11378     11379
     11375     11378     11380     11375     11378     11381     11376     11375     11377
     11376     11375     11378     11377     11375     11378     11378     11381     11382
     11378     11381     11383     11378     11381     11384     11379     11378     11380
     11379     11378     11381     11380     11378     11381     11381     11384     11385
     11381     11384     11386     11381     11384     11387     11382     11381     11383
     11382     11381     11384     11383     11381     11384     11384     11387     11388
     11384     11387     11389     11384     11387     11390     11385     11384     11386
     11385     11384     11387     11386     11384     11387     11388     11387     11389
     11388     11387     11390     11389     11387     11390     11391     11392     11393
     11391     11392     11394     11391     11392     11407     11391     11395     11396
     11391     11395     11397     11391     11395     11398     11391     11399     11400
     11391     11399     11401     11391     11399     11402     11391     11403     11404
     11391     11403     11405     11391     11403     11406     11392     11391     11395
     11392     11391     11399     11392     11391     11403     11392     11407     11408
     11392     11407     11409     11392     11407     11413     11393     11392     11394
     11393     11392     11407     11394     11392     11407     11395     11391     11399
     11395     11391     11403     11396     11395     11397     11396     11395     11398
     11397     11395     11398     11399     11391     11403     11400     11399     11401
     11400     11399     11402     11401     11399     11402     11404     11403     11405
     11404     11403     11406     11405     11403     11406     11407     11413     11410
     11408     11407     11409     11408     11407     11413     11409     11407     11413
     11410     11414     11415     11411     11410     11412     11411     11410     11413
     11411     11410     11414     11412     11410     11413     11412     11410     11414
     11413     11410     11414     11414     11415     11416     11414     11415     11417
     11414     11415     11418     11415     11418     11419     11415     11418     11420
     11415     11418     11426     11416     11415     11417     11416     11415     11418
     11417     11415     11418     11418     11420     11421     11418     11426     11427
     11418     11426     11428     11418     11426     11429     11419     11418     11420
     11419     11418     11426     11420     11418     11426     11420     11421     11422
     11420     11421     11423     11421     11423     11424     11421     11423     11425
     11421     11423     11435     11422     11421     11423     11423     11435     11436
     11423     11435     11437     11423     11435     11438     11424     11423     11425
     11424     11423     11435     11425     11423     11435     11426     11429     11430
     11427     11426     11428     11427     11426     11429     11428     11426     11429
     11429     11430     11431     11429     11430     11432     11430     11432     11433
     11430     11432     11434     11430     11432     11482     11431     11430     11432
     11432     11482     11483     11432     11482     11484     11432     11482     11485
     11433     11432     11434     11433     11432     11482     11434     11432     11482
     11435     11438     11439     11435     11438     11440     11435     11438     11441
     11436     11435     11437     11436     11435     11438     11437     11435     11438
     11438     11441     11442     11438     11441     11443     11439     11438     11440
     11439     11438     11441     11440     11438     11441     11441     11443     11444
     11441     11443     11445     11442     11441     11443     11443     11445     11446
     11443     11445     11447     11443     11445     11448     11444     11443     11445
     11445     11448     11449     11445     11448     11450     11446     11445     11447
     11446     11445     11448     11447     11445     11448     11448     11450     11451
     11448     11450     11452     11449     11448     11450     11450     11452     11453
     11450     11452     11454     11450     11452     11455     11451     11450     11452
     11452     11455     11456     11452     11455     11457     11453     11452     11454
     11453     11452     11455     11454     11452     11455     11455     11457     11458
     11455     11457     11459     11456     11455     11457     11457     11459     11460
     11457     11459     11461     11457     11459     11462     11458     11457     11459
     11459     11462     11463     11459     11462     11464     11460     11459     11461
     11460     11459     11462     11461     11459     11462     11462     11464     11465
     11462     11464     11466     11463     11462     11464     11464     11466     11467
     11464     11466     11468     11464     11466     11469     11465     11464     11466
     11466     11469     11470     11466     11469     11471     11466     11469     11472
     11467     11466     11468     11467     11466     11469     11468     11466     11469
     11469     11472     11473     11469     11472     11474     11469     11472     11475
     11470     11469     11471     11470     11469     11472     11471     11469     11472
     11472     11475     11476     11472     11475     11477     11472     11475     11478
     11473     11472     11474     11473     11472     11475     11474     11472     11475
     11475     11478     11479     11475     11478     11480     11475     11478     11481
     11476     11475     11477     11476     11475     11478     11477     11475     11478
     11479     11478     11480     11479     11478     11481     11480     11478     11481
     11482     11485     11486     11482     11485     11487     11482     11485     11488
     11483     11482     11484     11483     11482     11485     11484     11482     11485
     11485     11488     11489     11485     11488     11490     11485     11488     11491
     11486     11485     11487     11486     11485     11488     11487     11485     11488
     11488     11491     11492     11488     11491     11493     11488     11491     11494
     11489     11488     11490     11489     11488     11491     11490     11488     11491
     11491     11494     11495     11491     11494     11496     11491     11494     11497
     11492     11491     11493     11492     11491     11494     11493     11491     11494
     11494     11497     11498     11494     11497     11499     11494     11497     11500
     11495     11494     11496     11495     11494     11497     11496     11494     11497
     11497     11500     11501     11497     11500     11502     11497     11500     11503
     11498     11497     11499     11498     11497     11500     11499     11497     11500
     11500     11503     11504     11500     11503     11505     11500     11503     11506
     11501     11500     11502     11501     11500     11503     11502     11500     11503
     11503     11506     11507     11503     11506     11508     11503     11506     11509
     11504     11503     11505     11504     11503     11506     11505     11503     11506
     11506     11509     11510     11506     11509     11511     11506     11509     11512
     11507     11506     11508     11507     11506     11509     11508     11506     11509
     11509     11512     11513     11509     11512     11514     11509     11512     11515
     11510     11509     11511     11510     11509     11512     11511     11509     11512
     11512     11515     11516     11512     11515     11517     11512     11515     11518
     11513     11512     11514     11513     11512     11515     11514     11512     11515
     11515     11518     11519     11515     11518     11520     11515     11518     11521
     11516     11515     11517     11516     11515     11518     11517     11515     11518
     11518     11521     11522     11518     11521     11523     11518     11521     11524
     11519     11518     11520     11519     11518     11521     11520     11518     11521
     11521     11524     11525     11521     11524     11526     11521     11524     11527
     11522     11521     11523     11522     11521     11524     11523     11521     11524
     11524     11527     11528     11524     11527     11529     11524     11527     11530
     11525     11524     11526     11525     11524     11527     11526     11524     11527
     11528     11527     11529     11528     11527     11530     11529     11527     11530
     11531     11535     11536     11531     11535     11537     11531     11535     11538
     11532     11531     11533     11532     11531     11534     11532     11531     11535
     11533     11531     11534     11533     11531     11535     11534     11531     11535
     11535     11538     11539     11535     11538     11540     11535     11538     11544
     11536     11535     11537     11536     11535     11538     11537     11535     11538
     11538     11544     11541     11539     11538     11540     11539     11538     11544
     11540     11538     11544     11541     11545     11546     11542     11541     11543
     11542     11541     11544     11542     11541     11545     11543     11541     11544
     11543     11541     11545     11544     11541     11545     11545     11546     11547
     11545     11546     11548     11545     11546     11549     11546     11549     11550
     11546     11549     11551     11546     11549     11557     11547     11546     11548
     11547     11546     11549     11548     11546     11549     11549     11551     11552
     11549     11557     11558     11549     11557     11559     11549     11557     11560
     11550     11549     11551     11550     11549     11557     11551     11549     11557
     11551     11552     11553     11551     11552     11554     11552     11554     11555
     11552     11554     11556     11552     11554     11566     11553     11552     11554
     11554     11566     11567     11554     11566     11568     11554     11566     11569
     11555     11554     11556     11555     11554     11566     11556     11554     11566
     11557     11560     11561     11558     11557     11559     11558     11557     11560
     11559     11557     11560     11560     11561     11562     11560     11561     11563
     11561     11563     11564     11561     11563     11565     11561     11563     11613
     11562     11561     11563     11563     11613     11614     11563     11613     11615
     11563     11613     11616     11564     11563     11565     11564     11563     11613
     11565     11563     11613     11566     11569     11570     11566     11569     11571
     11566     11569     11572     11567     11566     11568     11567     11566     11569
     11568     11566     11569     11569     11572     11573     11569     11572     11574
     11570     11569     11571     11570     11569     11572     11571     11569     11572
     11572     11574     11575     11572     11574     11576     11573     11572     11574
     11574     11576     11577     11574     11576     11578     11574     11576     11579
     11575     11574     11576     11576     11579     11580     11576     11579     11581
     11577     11576     11578     11577     11576     11579     11578     11576     11579
     11579     11581     11582     11579     11581     11583     11580     11579     11581
     11581     11583     11584     11581     11583     11585     11581     11583     11586
     11582     11581     11583     11583     11586     11587     11583     11586     11588
     11584     11583     11585     11584     11583     11586     11585     11583     11586
     11586     11588     11589     11586     11588     11590     11587     11586     11588
     11588     11590     11591     11588     11590     11592     11588     11590     11593
     11589     11588     11590     11590     11593     11594     11590     11593     11595
     11591     11590     11592     11591     11590     11593     11592     11590     11593
     11593     11595     11596     11593     11595     11597     11594     11593     11595
     11595     11597     11598     11595     11597     11599     11595     11597     11600
     11596     11595     11597     11597     11600     11601     11597     11600     11602
     11597     11600     11603     11598     11597     11599     11598     11597     11600
     11599     11597     11600     11600     11603     11604     11600     11603     11605
     11600     11603     11606     11601     11600     11602     11601     11600     11603
     11602     11600     11603     11603     11606     11607     11603     11606     11608
     11603     11606     11609     11604     11603     11605     11604     11603     11606
     11605     11603     11606     11606     11609     11610     11606     11609     11611
     11606     11609     11612     11607     11606     11608     11607     11606     11609
     11608     11606     11609     11610     11609     11611     11610     11609     11612
     11611     11609     11612     11613     11616     11617     11613     11616     11618
     11613     11616     11619     11614     11613     11615     11614     11613     11616
     11615     11613     11616     11616     11619     11620     11616     11619     11621
     11616     11619     11622     11617     11616     11618     11617     11616     11619
     11618     11616     11619     11619     11622     11623     11619     11622     11624
     11619     11622     11625     11620     11619     11621     11620     11619     11622
     11621     11619     11622     11622     11625     11626     11622     11625     11627
     11622     11625     11628     11623     11622     11624     11623     11622     11625
     11624     11622     11625     11625     11628     11629     11625     11628     11630
     11625     11628     11631     11626     11625     11627     11626     11625     11628
     11627     11625     11628     11628     11631     11632     11628     11631     11633
     11628     11631     11634     11629     11628     11630     11629     11628     11631
     11630     11628     11631     11631     11634     11635     11631     11634     11636
     11631     11634     11637     11632     11631     11633     11632     11631     11634
     11633     11631     11634     11634     11637     11638     11634     11637     11639
     11634     11637     11640     11635     11634     11636     11635     11634     11637
     11636     11634     11637     11637     11640     11641     11637     11640     11642
     11637     11640     11643     11638     11637     11639     11638     11637     11640
     11639     11637     11640     11640     11643     11644     11640     11643     11645
     11640     11643     11646     11641     11640     11642     11641     11640     11643
     11642     11640     11643     11643     11646     11647     11643     11646     11648
     11643     11646     11649     11644     11643     11645     11644     11643     11646
     11645     11643     11646     11646     11649     11650     11646     11649     11651
     11646     11649     11652     11647     11646     11648     11647     11646     11649
     11648     11646     11649     11649     11652     11653     11649     11652     11654
     11649     11652     11655     11650     11649     11651     11650     11649     11652
     11651     11649     11652     11652     11655     11656     11652     11655     11657
     11652     11655     11658     11653     11652     11654     11653     11652     11655
     11654     11652     11655     11655     11658     11659     11655     11658     11660
     11655     11658     11661     11656     11655     11657     11656     11655     11658
     11657     11655     11658     11659     11658     11660     11659     11658     11661
     11660     11658     11661     11662     11663     11664     11662     11663     11665
     11662     11663     11666     11662     11667     11668     11662     11667     11669
     11662     11667     11670     11662     11671     11672     11662     11671     11673
     11662     11671     11674     11662     11675     11676     11662     11675     11677
     11662     11675     11678     11663     11662     11667     11663     11662     11671
     11663     11662     11675     11664     11663     11665     11664     11663     11666
     11665     11663     11666     11667     11662     11671     11667     11662     11675
     11668     11667     11669     11668     11667     11670     11669     11667     11670
     11671     11662     11675     11672     11671     11673     11672     11671     11674
     11673     11671     11674     11675     11678     11679     11675     11678     11680
     11675     11678     11685     11676     11675     11677     11676     11675     11678
     11677     11675     11678     11678     11685     11681     11679     11678     11680
     11679     11678     11685     11680     11678     11685     11681     11684     11686
     11682     11681     11683     11682     11681     11684     11682     11681     11685
     11683     11681     11684     11683     11681     11685     11684     11681     11685
     11684     11686     11687     11684     11686     11688     11684     11686     11691
     11686     11691     11689     11686     11691     11692     11686     11691     11693
     11687     11686     11688     11687     11686     11691     11688     11686     11691
     11689     11691     11692     11689     11691     11693     11689     11741     11742
     11689     11741     11743     11690     11689     11691     11690     11689     11741
     11691     11689     11741     11691     11693     11694     11691     11693     11695
     11691     11693     11697     11692     11691     11693     11693     11695     11696
     11693     11697     11698     11693     11697     11699     11694     11693     11695
     11694     11693     11697     11695     11693     11697     11697     11699     11700
     11697     11699     11701     11698     11697     11699     11699     11701     11702
     11699     11701     11703     11699     11701     11704     11700     11699     11701
     11701     11704     11705     11701     11704     11706     11701     11704     11707
     11702     11701     11703     11702     11701     11704     11703     11701     11704
     11704     11707     11708     11704     11707     11709     11704     11707     11710
     11705     11704     11706     11705     11704     11707     11706     11704     11707
     11707     11710     11711     11707     11710     11712     11707     11710     11713
     11708     11707     11709     11708     11707     11710     11709     11707     11710
     11710     11713     11714     11710     11713     11715     11710     11713     11716
     11711     11710     11712     11711     11710     11713     11712     11710     11713
     11713     11716     11717     11713     11716     11718     11713     11716     11719
     11714     11713     11715     11714     11713     11716     11715     11713     11716
     11716     11719     11720     11716     11719     11721     11716     11719     11722
     11717     11716     11718     11717     11716     11719     11718     11716     11719
     11719     11722     11723     11719     11722     11724     11719     11722     11725
     11720     11719     11721     11720     11719     11722     11721     11719     11722
     11722     11725     11726     11722     11725     11727     11722     11725     11728
     11723     11722     11724     11723     11722     11725     11724     11722     11725
     11725     11728     11729     11725     11728     11730     11725     11728     11731
     11726     11725     11727     11726     11725     11728     11727     11725     11728
     11728     11731     11732     11728     11731     11733     11728     11731     11734
     11729     11728     11730     11729     11728     11731     11730     11728     11731
     11731     11734     11735     11731     11734     11736     11731     11734     11737
     11732     11731     11733     11732     11731     11734     11733     11731     11734
     11734     11737     11738     11734     11737     11739     11734     11737     11740
     11735     11734     11736     11735     11734     11737     11736     11734     11737
     11738     11737     11739     11738     11737     11740     11739     11737     11740
     11741     11743     11744     11741     11743     11745     11741     11743     11746
     11742     11741     11743     11743     11746     11747     11743     11746     11748
     11743     11746     11749     11744     11743     11745     11744     11743     11746
     11745     11743     11746     11746     11749     11750     11746     11749     11751
     11746     11749     11752     11747     11746     11748     11747     11746     11749
     11748     11746     11749     11749     11752     11753     11749     11752     11754
     11749     11752     11755     11750     11749     11751     11750     11749     11752
     11751     11749     11752     11752     11755     11756     11752     11755     11757
     11752     11755     11758     11753     11752     11754     11753     11752     11755
     11754     11752     11755     11755     11758     11759     11755     11758     11760
     11755     11758     11761     11756     11755     11757     11756     11755     11758
     11757     11755     11758     11758     11761     11762     11758     11761     11763
     11758     11761     11764     11759     11758     11760     11759     11758     11761
     11760     11758     11761     11761     11764     11765     11761     11764     11766
     11762     11761     11763     11762     11761     11764     11763     11761     11764
     11764     11766     11767     11764     11766     11768     11765     11764     11766
     11766     11768     11769     11766     11768     11770     11766     11768     11771
     11767     11766     11768     11768     11771     11772     11768     11771     11773
     11768     11771     11774     11769     11768     11770     11769     11768     11771
     11770     11768     11771     11771     11774     11775     11771     11774     11776
     11771     11774     11777     11772     11771     11773     11772     11771     11774
     11773     11771     11774     11774     11777     11778     11774     11777     11779
     11774     11777     11780     11775     11774     11776     11775     11774     11777
     11776     11774     11777     11777     11780     11781     11777     11780     11782
     11777     11780     11783     11778     11777     11779     11778     11777     11780
     11779     11777     11780     11780     11783     11784     11780     11783     11785
     11780     11783     11786     11781     11780     11782     11781     11780     11783
     11782     11780     11783     11783     11786     11787     11783     11786     11788
     11783     11786     11789     11784     11783     11785     11784     11783     11786
     11785     11783     11786     11786     11789     11790     11786     11789     11791
     11786     11789     11792     11787     11786     11788     11787     11786     11789
     11788     11786     11789     11790     11789     11791     11790     11789     11792
     11791     11789     11792     11793     11797     11798     11793     11797     11799
     11793     11797     11802     11794     11793     11795     11794     11793     11796
     11794     11793     11797     11795     11793     11796     11795     11793     11797
     11796     11793     11797     11797     11799     11800     11797     11799     11801
     11797     11802     11803     11797     11802     11804     11797     11802     11808
     11798     11797     11799     11798     11797     11802     11799     11797     11802
     11800     11799     11801     11802     11808     11805     11803     11802     11804
     11803     11802     11808     11804     11802     11808     11805     11809     11810
     11806     11805     11807     11806     11805     11808     11806     11805     11809
     11807     11805     11808     11807     11805     11809     11808     11805     11809
     11809     11810     11811     11809     11810     11812     11809     11810     11813
     11810     11813     11814     11810     11813     11815     11810     11813     11821
     11811     11810     11812     11811     11810     11813     11812     11810     11813
     11813     11815     11816     11813     11821     11822     11813     11821     11823
     11813     11821     11824     11814     11813     11815     11814     11813     11821
     11815     11813     11821     11815     11816     11817     11815     11816     11818
     11816     11818     11819     11816     11818     11820     11816     11818     11830
     11817     11816     11818     11818     11830     11831     11818     11830     11832
     11818     11830     11833     11819     11818     11820     11819     11818     11830
     11820     11818     11830     11821     11824     11825     11822     11821     11823
     11822     11821     11824     11823     11821     11824     11824     11825     11826
     11824     11825     11827     11825     11827     11828     11825     11827     11829
     11825     11827     11877     11826     11825     11827     11827     11877     11878
     11827     11877     11879     11827     11877     11880     11828     11827     11829
     11828     11827     11877     11829     11827     11877     11830     11833     11834
     11830     11833     11835     11830     11833     11836     11831     11830     11832
     11831     11830     11833     11832     11830     11833     11833     11836     11837
     11833     11836     11838     11834     11833     11835     11834     11833     11836
     11835     11833     11836     11836     11838     11839     11836     11838     11840
     11837     11836     11838     11838     11840     11841     11838     11840     11842
     11838     11840     11843     11839     11838     11840     11840     11843     11844
     11840     11843     11845     11841     11840     11842     11841     11840     11843
     11842     11840     11843     11843     11845     11846     11843     11845     11847
     11844     11843     11845     11845     11847     11848     11845     11847     11849
     11845     11847     11850     11846     11845     11847     11847     11850     11851
     11847     11850     11852     11848     11847     11849     11848     11847     11850
     11849     11847     11850     11850     11852     11853     11850     11852     11854
     11851     11850     11852     11852     11854     11855     11852     11854     11856
     11852     11854     11857     11853     11852     11854     11854     11857     11858
     11854     11857     11859     11855     11854     11856     11855     11854     11857
     11856     11854     11857     11857     11859     11860     11857     11859     11861
     11858     11857     11859     11859     11861     11862     11859     11861     11863
     11859     11861     11864     11860     11859     11861     11861     11864     11865
     11861     11864     11866     11861     11864     11867     11862     11861     11863
     11862     11861     11864     11863     11861     11864     11864     11867     11868
     11864     11867     11869     11864     11867     11870     11865     11864     11866
     11865     11864     11867     11866     11864     11867     11867     11870     11871
     11867     11870     11872     11867     11870     11873     11868     11867     11869
     11868     11867     11870     11869     11867     11870     11870     11873     11874
     11870     11873     11875     11870     11873     11876     11871     11870     11872
     11871     11870     11873     11872     11870     11873     11874     11873     11875
     11874     11873     11876     11875     11873     11876     11877     11880     11881
     11877     11880     11882     11877     11880     11883     11878     11877     11879
     11878     11877     11880     11879     11877     11880     11880     11883     11884
     11880     11883     11885     11880     11883     11886     11881     11880     11882
     11881     11880     11883     11882     11880     11883     11883     11886     11887
     11883     11886     11888     11883     11886     11889     11884     11883     11885
     11884     11883     11886     11885     11883     11886     11886     11889     11890
     11886     11889     11891     11886     11889     11892     11887     11886     11888
     11887     11886     11889     11888     11886     11889     11889     11892     11893
     11889     11892     11894     11889     11892     11895     11890     11889     11891
     11890     11889     11892     11891     11889     11892     11892     11895     11896
     11892     11895     11897     11892     11895     11898     11893     11892     11894
     11893     11892     11895     11894     11892     11895     11895     11898     11899
     11895     11898     11900     11895     11898     11901     11896     11895     11897
     11896     11895     11898     11897     11895     11898     11898     11901     11902
     11898     11901     11903     11898     11901     11904     11899     11898     11900
     11899     11898     11901     11900     11898     11901     11901     11904     11905
     11901     11904     11906     11901     11904     11907     11902     11901     11903
     11902     11901     11904     11903     11901     11904     11904     11907     11908
     11904     11907     11909     11904     11907     11910     11905     11904     11906
     11905     11904     11907     11906     11904     11907     11907     11910     11911
     11907     11910     11912     11907     11910     11913     11908     11907     11909
     11908     11907     11910     11909     11907     11910     11910     11913     11914
     11910     11913     11915     11910     11913     11916     11911     11910     11912
     11911     11910     11913     11912     11910     11913     11913     11916     11917
     11913     11916     11918     11913     11916     11919     11914     11913     11915
     11914     11913     11916     11915     11913     11916     11916     11919     11920
     11916     11919     11921     11916     11919     11922     11917     11916     11918
     11917     11916     11919     11918     11916     11919     11919     11922     11923
     11919     11922     11924     11919     11922     11925     11920     11919     11921
     11920     11919     11922     11921     11919     11922     11923     11922     11924
     11923     11922     11925     11924     11922     11925     11926     11927     11928
     11926     11927     11929     11926     11927     11942     11926     11930     11931
     11926     11930     11932     11926     11930     11933     11926     11934     11935
     11926     11934     11936     11926     11934     11937     11926     11938     11939
     11926     11938     11940     11926     11938     11941     11927     11926     11930
     11927     11926     11934     11927     11926     11938     11927     11942     11943
     11927     11942     11944     11927     11942     11948     11928     11927     11929
     11928     11927     11942     11929     11927     11942     11930     11926     11934
     11930     11926     11938     11931     11930     11932     11931     11930     11933
     11932     11930     11933     11934     11926     11938     11935     11934     11936
     11935     11934     11937     11936     11934     11937     11939     11938     11940
     11939     11938     11941     11940     11938     11941     11942     11948     11945
     11943     11942     11944     11943     11942     11948     11944     11942     11948
     11945     11949     11950     11946     11945     11947     11946     11945     11948
     11946     11945     11949     11947     11945     11948     11947     11945     11949
     11948     11945     11949     11949     11950     11951     11949     11950     11952
     11949     11950     11953     11950     11953     11954     11950     11953     11955
     11950     11953     11961     11951     11950     11952     11951     11950     11953
     11952     11950     11953     11953     11955     11956     11953     11961     11962
     11953     11961     11963     11953     11961     11964     11954     11953     11955
     11954     11953     11961     11955     11953     11961     11955     11956     11957
     11955     11956     11958     11956     11958     11959     11956     11958     11960
     11956     11958     11970     11957     11956     11958     11958     11970     11971
     11958     11970     11972     11958     11970     11973     11959     11958     11960
     11959     11958     11970     11960     11958     11970     11961     11964     11965
     11962     11961     11963     11962     11961     11964     11963     11961     11964
     11964     11965     11966     11964     11965     11967     11965     11967     11968
     11965     11967     11969     11965     11967     12017     11966     11965     11967
     11967     12017     12018     11967     12017     12019     11967     12017     12020
     11968     11967     11969     11968     11967     12017     11969     11967     12017
     11970     11973     11974     11970     11973     11975     11970     11973     11976
     11971     11970     11972     11971     11970     11973     11972     11970     11973
     11973     11976     11977     11973     11976     11978     11973     11976     11979
     11974     11973     11975     11974     11973     11976     11975     11973     11976
     11976     11979     11980     11976     11979     11981     11976     11979     11982
     11977     11976     11978     11977     11976     11979     11978     11976     11979
     11979     11982     11983     11979     11982     11984     11979     11982     11985
     11980     11979     11981     11980     11979     11982     11981     11979     11982
     11982     11985     11986     11982     11985     11987     11982     11985     11988
     11983     11982     11984     11983     11982     11985     11984     11982     11985
     11985     11988     11989     11985     11988     11990     11986     11985     11987
     11986     11985     11988     11987     11985     11988     11988     11990     11991
     11988     11990     11992     11989     11988     11990     11990     11992     11993
     11990     11992     11994     11990     11992     11995     11991     11990     11992
     11992     11995     11996     11992     11995     11997     11992     11995     11998
     11993     11992     11994     11993     11992     11995     11994     11992     11995
     11995     11998     11999     11995     11998     12000     11995     11998     12001
     11996     11995     11997     11996     11995     11998     11997     11995     11998
     11998     12001     12002     11998     12001     12003     11998     12001     12004
     11999     11998     12000     11999     11998     12001     12000     11998     12001
     12001     12004     12005     12001     12004     12006     12001     12004     12007
     12002     12001     12003     12002     12001     12004     12003     12001     12004
     12004     12007     12008     12004     12007     12009     12004     12007     12010
     12005     12004     12006     12005     12004     12007     12006     12004     12007
     12007     12010     12011     12007     12010     12012     12007     12010     12013
     12008     12007     12009     12008     12007     12010     12009     12007     12010
     12010     12013     12014     12010     12013     12015     12010     12013     12016
     12011     12010     12012     12011     12010     12013     12012     12010     12013
     12014     12013     12015     12014     12013     12016     12015     12013     12016
     12017     12020     12021     12017     12020     12022     12017     12020     12023
     12018     12017     12019     12018     12017     12020     12019     12017     12020
     12020     12023     12024     12020     12023     12025     12020     12023     12026
     12021     12020     12022     12021     12020     12023     12022     12020     12023
     12023     12026     12027     12023     12026     12028     12023     12026     12029
     12024     12023     12025     12024     12023     12026     12025     12023     12026
     12026     12029     12030     12026     12029     12031     12026     12029     12032
     12027     12026     12028     12027     12026     12029     12028     12026     12029
     12029     12032     12033     12029     12032     12034     12029     12032     12035
     12030     12029     12031     12030     12029     12032     12031     12029     12032
     12032     12035     12036     12032     12035     12037     12032     12035     12038
     12033     12032     12034     12033     12032     12035     12034     12032     12035
     12035     12038     12039     12035     12038     12040     12035     12038     12041
     12036     12035     12037     12036     12035     12038     12037     12035     12038
     12038     12041     12042     12038     12041     12043     12038     12041     12044
     12039     12038     12040     12039     12038     12041     12040     12038     12041
     12041     12044     12045     12041     12044     12046     12041     12044     12047
     12042     12041     12043     12042     12041     12044     12043     12041     12044
     12044     12047     12048     12044     12047     12049     12044     12047     12050
     12045     12044     12046     12045     12044     12047     12046     12044     12047
     12047     12050     12051     12047     12050     12052     12047     12050     12053
     12048     12047     12049     12048     12047     12050     12049     12047     12050
     12050     12053     12054     12050     12053     12055     12050     12053     12056
     12051     12050     12052     12051     12050     12053     12052     12050     12053
     12053     12056     12057     12053     12056     12058     12053     12056     12059
     12054     12053     12055     12054     12053     12056     12055     12053     12056
     12057     12056     12058     12057     12056     12059     12058     12056     12059
     12060     12064     12065     12060     12064     12066     12060     12064     12067
     12061     12060     12062     12061     12060     12063     12061     12060     12064
     12062     12060     12063     12062     12060     12064     12063     12060     12064
     12064     12067     12068     12064     12067     12069     12064     12067     12073
     12065     12064     12066     12065     12064     12067     12066     12064     12067
     12067     12073     12070     12068     12067     12069     12068     12067     12073
     12069     12067     12073     12070     12074     12075     12071     12070     12072
     12071     12070     12073     12071     12070     12074     12072     12070     12073
     12072     12070     12074     12073     12070     12074     12074     12075     12076
     12074     12075     12077     12074     12075     12078     12075     12078     12079
     12075     12078     12080     12075     12078     12086     12076     12075     12077
     12076     12075     12078     12077     12075     12078     12078     12080     12081
     12078     12086     12087     12078     12086     12088     12078     12086     12089
     12079     12078     12080     12079     12078     12086     12080     12078     12086
     12080     12081     12082     12080     12081     12083     12081     12083     12084
     12081     12083     12085     12081     12083     12095     12082     12081     12083
     12083     12095     12096     12083     12095     12097     12083     12095     12098
     12084     12083     12085     12084     12083     12095     12085     12083     12095
     12086     12089     12090     12087     12086     12088     12087     12086     12089
     12088     12086     12089     12089     12090     12091     12089     12090     12092
     12090     12092     12093     12090     12092     12094     12090     12092     12142
     12091     12090     12092     12092     12142     12143     12092     12142     12144
     12092     12142     12145     12093     12092     12094     12093     12092     12142
     12094     12092     12142     12095     12098     12099     12095     12098     12100
     12095     12098     12101     12096     12095     12097     12096     12095     12098
     12097     12095     12098     12098     12101     12102     12098     12101     12103
     12099     12098     12100     12099     12098     12101     12100     12098     12101
     12101     12103     12104     12101     12103     12105     12102     12101     12103
     12103     12105     12106     12103     12105     12107     12103     12105     12108
     12104     12103     12105     12105     12108     12109     12105     12108     12110
     12106     12105     12107     12106     12105     12108     12107     12105     12108
     12108     12110     12111     12108     12110     12112     12109     12108     12110
     12110     12112     12113     12110     12112     12114     12110     12112     12115
     12111     12110     12112     12112     12115     12116     12112     12115     12117
     12113     12112     12114     12113     12112     12115     12114     12112     12115
     12115     12117     12118     12115     12117     12119     12116     12115     12117
     12117     12119     12120     12117     12119     12121     12117     12119     12122
     12118     12117     12119     12119     12122     12123     12119     12122     12124
     12120     12119     12121     12120     12119     12122     12121     12119     12122
     12122     12124     12125     12122     12124     12126     12123     12122     12124
     12124     12126     12127     12124     12126     12128     12124     12126     12129
     12125     12124     12126     12126     12129     12130     12126     12129     12131
     12126     12129     12132     12127     12126     12128     12127     12126     12129
     12128     12126     12129     12129     12132     12133     12129     12132     12134
     12129     12132     12135     12130     12129     12131     12130     12129     12132
     12131     12129     12132     12132     12135     12136     12132     12135     12137
     12132     12135     12138     12133     12132     12134     12133     12132     12135
     12134     12132     12135     12135     12138     12139     12135     12138     12140
     12135     12138     12141     12136     12135     12137     12136     12135     12138
     12137     12135     12138     12139     12138     12140     12139     12138     12141
     12140     12138     12141     12142     12145     12146     12142     12145     12147
     12142     12145     12148     12143     12142     12144     12143     12142     12145
     12144     12142     12145     12145     12148     12149     12145     12148     12150
     12145     12148     12151     12146     12145     12147     12146     12145     12148
     12147     12145     12148     12148     12151     12152     12148     12151     12153
     12148     12151     12154     12149     12148     12150     12149     12148     12151
     12150     12148     12151     12151     12154     12155     12151     12154     12156
     12151     12154     12157     12152     12151     12153     12152     12151     12154
     12153     12151     12154     12154     12157     12158     12154     12157     12159
     12154     12157     12160     12155     12154     12156     12155     12154     12157
     12156     12154     12157     12157     12160     12161     12157     12160     12162
     12157     12160     12163     12158     12157     12159     12158     12157     12160
     12159     12157     12160     12160     12163     12164     12160     12163     12165
     12160     12163     12166     12161     12160     12162     12161     12160     12163
     12162     12160     12163     12163     12166     12167     12163     12166     12168
     12163     12166     12169     12164     12163     12165     12164     12163     12166
     12165     12163     12166     12166     12169     12170     12166     12169     12171
     12166     12169     12172     12167     12166     12168     12167     12166     12169
     12168     12166     12169     12169     12172     12173     12169     12172     12174
     12169     12172     12175     12170     12169     12171     12170     12169     12172
     12171     12169     12172     12172     12175     12176     12172     12175     12177
     12172     12175     12178     12173     12172     12174     12173     12172     12175
     12174     12172     12175     12175     12178     12179     12175     12178     12180
     12175     12178     12181     12176     12175     12177     12176     12175     12178
     12177     12175     12178     12178     12181     12182     12178     12181     12183
     12178     12181     12184     12179     12178     12180     12179     12178     12181
     12180     12178     12181     12181     12184     12185     12181     12184     12186
     12181     12184     12187     12182     12181     12183     12182     12181     12184
     12183     12181     12184     12184     12187     12188     12184     12187     12189
     12184     12187     12190     12185     12184     12186     12185     12184     12187
     12186     12184     12187     12188     12187     12189     12188     12187     12190
     12189     12187     12190     12191     12195     12196     12191     12195     12197
     12191     12195     12200     12192     12191     12193     12192     12191     12194
     12192     12191     12195     12193     12191     12194     12193     12191     12195
     12194     12191     12195     12195     12197     12198     12195     12197     12199
     12195     12200     12201     12195     12200     12202     12195     12200     12206
     12196     12195     12197     12196     12195     12200     12197     12195     12200
     12198     12197     12199     12200     12206     12203     12201     12200     12202
     12201     12200     12206     12202     12200     12206     12203     12207     12208
     12204     12203     12205     12204     12203     12206     12204     12203     12207
     12205     12203     12206     12205     12203     12207     12206     12203     12207
     12207     12208     12209     12207     12208     12210     12207     12208     12211
     12208     12211     12212     12208     12211     12213     12208     12211     12219
     12209     12208     12210     12209     12208     12211     12210     12208     12211
     12211     12213     12214     12211     12219     12220     12211     12219     12221
     12211     12219     12222     12212     12211     12213     12212     12211     12219
     12213     12211     12219     12213     12214     12215     12213     12214     12216
     12214     12216     12217     12214     12216     12218     12214     12216     12228
     12215     12214     12216     12216     12228     12229     12216     12228     12230
     12216     12228     12231     12217     12216     12218     12217     12216     12228
     12218     12216     12228     12219     12222     12223     12220     12219     12221
     12220     12219     12222     12221     12219     12222     12222     12223     12224
     12222     12223     12225     12223     12225     12226     12223     12225     12227
     12223     12225     12275     12224     12223     12225     12225     12275     12276
     12225     12275     12277     12225     12275     12278     12226     12225     12227
     12226     12225     12275     12227     12225     12275     12228     12231     12232
     12228     12231     12233     12228     12231     12234     12229     12228     12230
     12229     12228     12231     12230     12228     12231     12231     12234     12235
     12231     12234     12236     12232     12231     12233     12232     12231     12234
     12233     12231     12234     12234     12236     12237     12234     12236     12238
     12235     12234     12236     12236     12238     12239     12236     12238     12240
     12236     12238     12241     12237     12236     12238     12238     12241     12242
     12238     12241     12243     12239     12238     12240     12239     12238     12241
     12240     12238     12241     12241     12243     12244     12241     12243     12245
     12242     12241     12243     12243     12245     12246     12243     12245     12247
     12243     12245     12248     12244     12243     12245     12245     12248     12249
     12245     12248     12250     12246     12245     12247     12246     12245     12248
     12247     12245     12248     12248     12250     12251     12248     12250     12252
     12249     12248     12250     12250     12252     12253     12250     12252     12254
     12250     12252     12255     12251     12250     12252     12252     12255     12256
     12252     12255     12257     12253     12252     12254     12253     12252     12255
     12254     12252     12255     12255     12257     12258     12255     12257     12259
     12256     12255     12257     12257     12259     12260     12257     12259     12261
     12257     12259     12262     12258     12257     12259     12259     12262     12263
     12259     12262     12264     12259     12262     12265     12260     12259     12261
     12260     12259     12262     12261     12259     12262     12262     12265     12266
     12262     12265     12267     12262     12265     12268     12263     12262     12264
     12263     12262     12265     12264     12262     12265     12265     12268     12269
     12265     12268     12270     12265     12268     12271     12266     12265     12267
     12266     12265     12268     12267     12265     12268     12268     12271     12272
     12268     12271     12273     12268     12271     12274     12269     12268     12270
     12269     12268     12271     12270     12268     12271     12272     12271     12273
     12272     12271     12274     12273     12271     12274     12275     12278     12279
     12275     12278     12280     12275     12278     12281     12276     12275     12277
     12276     12275     12278     12277     12275     12278     12278     12281     12282
     12278     12281     12283     12278     12281     12284     12279     12278     12280
     12279     12278     12281     12280     12278     12281     12281     12284     12285
     12281     12284     12286     12281     12284     12287     12282     12281     12283
     12282     12281     12284     12283     12281     12284     12284     12287     12288
     12284     12287     12289     12284     12287     12290     12285     12284     12286
     12285     12284     12287     12286     12284     12287     12287     12290     12291
     12287     12290     12292     12287     12290     12293     12288     12287     12289
     12288     12287     12290     12289     12287     12290     12290     12293     12294
     12290     12293     12295     12290     12293     12296     12291     12290     12292
     12291     12290     12293     12292     12290     12293     12293     12296     12297
     12293     12296     12298     12293     12296     12299     12294     12293     12295
     12294     12293     12296     12295     12293     12296     12296     12299     12300
     12296     12299     12301     12296     12299     12302     12297     12296     12298
     12297     12296     12299     12298     12296     12299     12299     12302     12303
     12299     12302     12304     12299     12302     12305     12300     12299     12301
     12300     12299     12302     12301     12299     12302     12302     12305     12306
     12302     12305     12307     12302     12305     12308     12303     12302     12304
     12303     12302     12305     12304     12302     12305     12305     12308     12309
     12305     12308     12310     12305     12308     12311     12306     12305     12307
     12306     12305     12308     12307     12305     12308     12308     12311     12312
     12308     12311     12313     12308     12311     12314     12309     12308     12310
     12309     12308     12311     12310     12308     12311     12311     12314     12315
     12311     12314     12316     12311     12314     12317     12312     12311     12313
     12312     12311     12314     12313     12311     12314     12314     12317     12318
     12314     12317     12319     12314     12317     12320     12315     12314     12316
     12315     12314     12317     12316     12314     12317     12317     12320     12321
     12317     12320     12322     12317     12320     12323     12318     12317     12319
     12318     12317     12320     12319     12317     12320     12321     12320     12322
     12321     12320     12323     12322     12320     12323     12324     12326     12327
     12324     12328     12329     12324     12328     12330     12324     12328     12331
     12324     12370     12367     12324     12370     12371     12324     12370     12372
     12325     12324     12326     12325     12324     12328     12325     12324     12370
     12326     12324     12328     12326     12324     12370     12328     12324     12370
     12328     12331     12332     12328     12331     12362     12329     12328     12330
     12329     12328     12331     12330     12328     12331     12331     12332     12333
     12331     12332     12334     12331     12362     12360     12331     12362     12363
     12331     12362     12367     12332     12331     12362     12332     12334     12335
     12332     12334     12336     12332     12334     12337     12333     12332     12334
     12334     12337     12338     12334     12337     12339     12334     12337     12360
     12335     12334     12336     12335     12334     12337     12336     12334     12337
     12337     12339     12340     12337     12339     12341     12337     12339     12349
     12337     12360     12357     12337     12360     12361     12337     12360     12362
     12338     12337     12339     12338     12337     12360     12339     12337     12360
     12339     12341     12342     12339     12341     12343     12339     12341     12344
     12339     12349     12347     12339     12349     12350     12339     12349     12354
     12340     12339     12341     12340     12339     12349     12341     12339     12349
     12341     12344     12345     12341     12344     12346     12341     12344     12347
     12342     12341     12343     12342     12341     12344     12343     12341     12344
     12344     12347     12348     12344     12347     12349     12344     12347     12373
     12345     12344     12346     12345     12344     12347     12346     12344     12347
     12347     12349     12350     12347     12349     12354     12347     12373     12374
     12347     12373     12375     12347     12373     12379     12348     12347     12349
     12348     12347     12373     12349     12347     12373     12349     12350     12351
     12349     12350     12352     12349     12350     12353     12349     12354     12355
     12349     12354     12356     12349     12354     12357     12350     12349     12354
     12351     12350     12352     12351     12350     12353     12352     12350     12353
     12354     12357     12358     12354     12357     12359     12354     12357     12360
     12355     12354     12356     12355     12354     12357     12356     12354     12357
     12357     12360     12361     12357     12360     12362     12358     12357     12359
     12358     12357     12360     12359     12357     12360     12360     12362     12363
     12360     12362     12367     12361     12360     12362     12362     12363     12364
     12362     12363     12365     12362     12363     12366     12362     12367     12368
     12362     12367     12369     12362     12367     12370     12363     12362     12367
     12364     12363     12365     12364     12363     12366     12365     12363     12366
     12367     12370     12371     12367     12370     12372     12368     12367     12369
     12368     12367     12370     12369     12367     12370     12371     12370     12372
     12373     12375     12376     12373     12375     12377     12373     12375     12378
     12373     12379     12380     12373     12379     12381     12373     12379     12382
     12374     12373     12375     12374     12373     12379     12375     12373     12379
     12376     12375     12377     12376     12375     12378     12377     12375     12378
     12379     12382     12383     12379     12382     12384     12379     12382     12385
     12380     12379     12381     12380     12379     12382     12381     12379     12382
     12382     12385     12386     12382     12385     12387     12382     12385     12388
     12383     12382     12384     12383     12382     12385     12384     12382     12385
     12385     12388     12389     12385     12388     12390     12385     12388     12394
     12386     12385     12387     12386     12385     12388     12387     12385     12388
     12388     12390     12391     12388     12390     12392     12388     12390     12393
     12388     12394     12395     12388     12394     12396     12388     12394     12397
     12389     12388     12390     12389     12388     12394     12390     12388     12394
     12391     12390     12392     12391     12390     12393     12392     12390     12393
     12395     12394     12396     12395     12394     12397     12396     12394     12397
     12398     12400     12401     12398     12402     12403     12398     12402     12404
     12398     12402     12405     12398     12444     12441     12398     12444     12445
     12398     12444     12446     12399     12398     12400     12399     12398     12402
     12399     12398     12444     12400     12398     12402     12400     12398     12444
     12402     12398     12444     12402     12405     12406     12402     12405     12436
     12403     12402     12404     12403     12402     12405     12404     12402     12405
     12405     12406     12407     12405     12406     12408     12405     12436     12434
     12405     12436     12437     12405     12436     12441     12406     12405     12436
     12406     12408     12409     12406     12408     12410     12406     12408     12411
     12407     12406     12408     12408     12411     12412     12408     12411     12413
     12408     12411     12434     12409     12408     12410     12409     12408     12411
     12410     12408     12411     12411     12413     12414     12411     12413     12415
     12411     12413     12423     12411     12434     12431     12411     12434     12435
     12411     12434     12436     12412     12411     12413     12412     12411     12434
     12413     12411     12434     12413     12415     12416     12413     12415     12417
     12413     12415     12418     12413     12423     12421     12413     12423     12424
     12413     12423     12428     12414     12413     12415     12414     12413     12423
     12415     12413     12423     12415     12418     12419     12415     12418     12420
     12415     12418     12421     12416     12415     12417     12416     12415     12418
     12417     12415     12418     12418     12421     12422     12418     12421     12423
     12418     12421     12447     12419     12418     12420     12419     12418     12421
     12420     12418     12421     12421     12423     12424     12421     12423     12428
     12421     12447     12448     12421     12447     12449     12421     12447     12453
     12422     12421     12423     12422     12421     12447     12423     12421     12447
     12423     12424     12425     12423     12424     12426     12423     12424     12427
     12423     12428     12429     12423     12428     12430     12423     12428     12431
     12424     12423     12428     12425     12424     12426     12425     12424     12427
     12426     12424     12427     12428     12431     12432     12428     12431     12433
     12428     12431     12434     12429     12428     12430     12429     12428     12431
     12430     12428     12431     12431     12434     12435     12431     12434     12436
     12432     12431     12433     12432     12431     12434     12433     12431     12434
     12434     12436     12437     12434     12436     12441     12435     12434     12436
     12436     12437     12438     12436     12437     12439     12436     12437     12440
     12436     12441     12442     12436     12441     12443     12436     12441     12444
     12437     12436     12441     12438     12437     12439     12438     12437     12440
     12439     12437     12440     12441     12444     12445     12441     12444     12446
     12442     12441     12443     12442     12441     12444     12443     12441     12444
     12445     12444     12446     12447     12449     12450     12447     12449     12451
     12447     12449     12452     12447     12453     12454     12447     12453     12455
     12447     12453     12456     12448     12447     12449     12448     12447     12453
     12449     12447     12453     12450     12449     12451     12450     12449     12452
     12451     12449     12452     12453     12456     12457     12453     12456     12458
     12453     12456     12459     12454     12453     12455     12454     12453     12456
     12455     12453     12456     12456     12459     12460     12456     12459     12461
     12456     12459     12462     12457     12456     12458     12457     12456     12459
     12458     12456     12459     12459     12462     12463     12459     12462     12464
     12459     12462     12468     12460     12459     12461     12460     12459     12462
     12461     12459     12462     12462     12464     12465     12462     12464     12466
     12462     12464     12467     12462     12468     12469     12462     12468     12470
     12462     12468     12471     12463     12462     12464     12463     12462     12468
     12464     12462     12468     12465     12464     12466     12465     12464     12467
     12466     12464     12467     12469     12468     12470     12469     12468     12471
     12470     12468     12471     12472     12476     12477     12472     12476     12478
     12472     12476     12481     12473     12472     12474     12473     12472     12475
     12473     12472     12476     12474     12472     12475     12474     12472     12476
     12475     12472     12476     12476     12478     12479     12476     12478     12480
     12476     12481     12482     12476     12481     12483     12476     12481     12487
     12477     12476     12478     12477     12476     12481     12478     12476     12481
     12479     12478     12480     12481     12487     12484     12482     12481     12483
     12482     12481     12487     12483     12481     12487     12484     12488     12489
     12485     12484     12486     12485     12484     12487     12485     12484     12488
     12486     12484     12487     12486     12484     12488     12487     12484     12488
     12488     12489     12490     12488     12489     12491     12488     12489     12492
     12489     12492     12493     12489     12492     12494     12489     12492     12500
     12490     12489     12491     12490     12489     12492     12491     12489     12492
     12492     12494     12495     12492     12500     12501     12492     12500     12502
     12492     12500     12503     12493     12492     12494     12493     12492     12500
     12494     12492     12500     12494     12495     12496     12494     12495     12497
     12495     12497     12498     12495     12497     12499     12495     12497     12509
     12496     12495     12497     12497     12509     12510     12497     12509     12511
     12497     12509     12512     12498     12497     12499     12498     12497     12509
     12499     12497     12509     12500     12503     12504     12501     12500     12502
     12501     12500     12503     12502     12500     12503     12503     12504     12505
     12503     12504     12506     12504     12506     12507     12504     12506     12508
     12504     12506     12556     12505     12504     12506     12506     12556     12557
     12506     12556     12558     12506     12556     12559     12507     12506     12508
     12507     12506     12556     12508     12506     12556     12509     12512     12513
     12509     12512     12514     12509     12512     12515     12510     12509     12511
     12510     12509     12512     12511     12509     12512     12512     12515     12516
     12512     12515     12517     12513     12512     12514     12513     12512     12515
     12514     12512     12515     12515     12517     12518     12515     12517     12519
     12516     12515     12517     12517     12519     12520     12517     12519     12521
     12517     12519     12522     12518     12517     12519     12519     12522     12523
     12519     12522     12524     12520     12519     12521     12520     12519     12522
     12521     12519     12522     12522     12524     12525     12522     12524     12526
     12523     12522     12524     12524     12526     12527     12524     12526     12528
     12524     12526     12529     12525     12524     12526     12526     12529     12530
     12526     12529     12531     12527     12526     12528     12527     12526     12529
     12528     12526     12529     12529     12531     12532     12529     12531     12533
     12530     12529     12531     12531     12533     12534     12531     12533     12535
     12531     12533     12536     12532     12531     12533     12533     12536     12537
     12533     12536     12538     12534     12533     12535     12534     12533     12536
     12535     12533     12536     12536     12538     12539     12536     12538     12540
     12537     12536     12538     12538     12540     12541     12538     12540     12542
     12538     12540     12543     12539     12538     12540     12540     12543     12544
     12540     12543     12545     12540     12543     12546     12541     12540     12542
     12541     12540     12543     12542     12540     12543     12543     12546     12547
     12543     12546     12548     12543     12546     12549     12544     12543     12545
     12544     12543     12546     12545     12543     12546     12546     12549     12550
     12546     12549     12551     12546     12549     12552     12547     12546     12548
     12547     12546     12549     12548     12546     12549     12549     12552     12553
     12549     12552     12554     12549     12552     12555     12550     12549     12551
     12550     12549     12552     12551     12549     12552     12553     12552     12554
     12553     12552     12555     12554     12552     12555     12556     12559     12560
     12556     12559     12561     12556     12559     12562     12557     12556     12558
     12557     12556     12559     12558     12556     12559     12559     12562     12563
     12559     12562     12564     12559     12562     12565     12560     12559     12561
     12560     12559     12562     12561     12559     12562     12562     12565     12566
     12562     12565     12567     12562     12565     12568     12563     12562     12564
     12563     12562     12565     12564     12562     12565     12565     12568     12569
     12565     12568     12570     12565     12568     12571     12566     12565     12567
     12566     12565     12568     12567     12565     12568     12568     12571     12572
     12568     12571     12573     12568     12571     12574     12569     12568     12570
     12569     12568     12571     12570     12568     12571     12571     12574     12575
     12571     12574     12576     12571     12574     12577     12572     12571     12573
     12572     12571     12574     12573     12571     12574     12574     12577     12578
     12574     12577     12579     12574     12577     12580     12575     12574     12576
     12575     12574     12577     12576     12574     12577     12577     12580     12581
     12577     12580     12582     12577     12580     12583     12578     12577     12579
     12578     12577     12580     12579     12577     12580     12580     12583     12584
     12580     12583     12585     12580     12583     12586     12581     12580     12582
     12581     12580     12583     12582     12580     12583     12583     12586     12587
     12583     12586     12588     12583     12586     12589     12584     12583     12585
     12584     12583     12586     12585     12583     12586     12586     12589     12590
     12586     12589     12591     12586     12589     12592     12587     12586     12588
     12587     12586     12589     12588     12586     12589     12589     12592     12593
     12589     12592     12594     12589     12592     12595     12590     12589     12591
     12590     12589     12592     12591     12589     12592     12592     12595     12596
     12592     12595     12597     12592     12595     12598     12593     12592     12594
     12593     12592     12595     12594     12592     12595     12595     12598     12599
     12595     12598     12600     12595     12598     12601     12596     12595     12597
     12596     12595     12598     12597     12595     12598     12598     12601     12602
     12598     12601     12603     12598     12601     12604     12599     12598     12600
     12599     12598     12601     12600     12598     12601     12602     12601     12603
     12602     12601     12604     12603     12601     12604     12605     12609     12610
     12605     12609     12611     12605     12609     12612     12606     12605     12607
     12606     12605     12608     12606     12605     12609     12607     12605     12608
     12607     12605     12609     12608     12605     12609     12609     12612     12613
     12609     12612     12614     12609     12612     12618     12610     12609     12611
     12610     12609     12612     12611     12609     12612     12612     12618     12615
     12613     12612     12614     12613     12612     12618     12614     12612     12618
     12615     12619     12620     12616     12615     12617     12616     12615     12618
     12616     12615     12619     12617     12615     12618     12617     12615     12619
     12618     12615     12619     12619     12620     12621     12619     12620     12622
     12619     12620     12623     12620     12623     12624     12620     12623     12625
     12620     12623     12631     12621     12620     12622     12621     12620     12623
     12622     12620     12623     12623     12625     12626     12623     12631     12632
     12623     12631     12633     12623     12631     12634     12624     12623     12625
     12624     12623     12631     12625     12623     12631     12625     12626     12627
     12625     12626     12628     12626     12628     12629     12626     12628     12630
     12626     12628     12640     12627     12626     12628     12628     12640     12641
     12628     12640     12642     12628     12640     12643     12629     12628     12630
     12629     12628     12640     12630     12628     12640     12631     12634     12635
     12632     12631     12633     12632     12631     12634     12633     12631     12634
     12634     12635     12636     12634     12635     12637     12635     12637     12638
     12635     12637     12639     12635     12637     12687     12636     12635     12637
     12637     12687     12688     12637     12687     12689     12637     12687     12690
     12638     12637     12639     12638     12637     12687     12639     12637     12687
     12640     12643     12644     12640     12643     12645     12640     12643     12646
     12641     12640     12642     12641     12640     12643     12642     12640     12643
     12643     12646     12647     12643     12646     12648     12644     12643     12645
     12644     12643     12646     12645     12643     12646     12646     12648     12649
     12646     12648     12650     12647     12646     12648     12648     12650     12651
     12648     12650     12652     12648     12650     12653     12649     12648     12650
     12650     12653     12654     12650     12653     12655     12651     12650     12652
     12651     12650     12653     12652     12650     12653     12653     12655     12656
     12653     12655     12657     12654     12653     12655     12655     12657     12658
     12655     12657     12659     12655     12657     12660     12656     12655     12657
     12657     12660     12661     12657     12660     12662     12658     12657     12659
     12658     12657     12660     12659     12657     12660     12660     12662     12663
     12660     12662     12664     12661     12660     12662     12662     12664     12665
     12662     12664     12666     12662     12664     12667     12663     12662     12664
     12664     12667     12668     12664     12667     12669     12665     12664     12666
     12665     12664     12667     12666     12664     12667     12667     12669     12670
     12667     12669     12671     12668     12667     12669     12669     12671     12672
     12669     12671     12673     12669     12671     12674     12670     12669     12671
     12671     12674     12675     12671     12674     12676     12671     12674     12677
     12672     12671     12673     12672     12671     12674     12673     12671     12674
     12674     12677     12678     12674     12677     12679     12674     12677     12680
     12675     12674     12676     12675     12674     12677     12676     12674     12677
     12677     12680     12681     12677     12680     12682     12677     12680     12683
     12678     12677     12679     12678     12677     12680     12679     12677     12680
     12680     12683     12684     12680     12683     12685     12680     12683     12686
     12681     12680     12682     12681     12680     12683     12682     12680     12683
     12684     12683     12685     12684     12683     12686     12685     12683     12686
     12687     12690     12691     12687     12690     12692     12687     12690     12693
     12688     12687     12689     12688     12687     12690     12689     12687     12690
     12690     12693     12694     12690     12693     12695     12690     12693     12696
     12691     12690     12692     12691     12690     12693     12692     12690     12693
     12693     12696     12697     12693     12696     12698     12693     12696     12699
     12694     12693     12695     12694     12693     12696     12695     12693     12696
     12696     12699     12700     12696     12699     12701     12696     12699     12702
     12697     12696     12698     12697     12696     12699     12698     12696     12699
     12699     12702     12703     12699     12702     12704     12699     12702     12705
     12700     12699     12701     12700     12699     12702     12701     12699     12702
     12702     12705     12706     12702     12705     12707     12702     12705     12708
     12703     12702     12704     12703     12702     12705     12704     12702     12705
     12705     12708     12709     12705     12708     12710     12705     12708     12711
     12706     12705     12707     12706     12705     12708     12707     12705     12708
     12708     12711     12712     12708     12711     12713     12708     12711     12714
     12709     12708     12710     12709     12708     12711     12710     12708     12711
     12711     12714     12715     12711     12714     12716     12711     12714     12717
     12712     12711     12713     12712     12711     12714     12713     12711     12714
     12714     12717     12718     12714     12717     12719     12714     12717     12720
     12715     12714     12716     12715     12714     12717     12716     12714     12717
     12717     12720     12721     12717     12720     12722     12717     12720     12723
     12718     12717     12719     12718     12717     12720     12719     12717     12720
     12720     12723     12724     12720     12723     12725     12720     12723     12726
     12721     12720     12722     12721     12720     12723     12722     12720     12723
     12723     12726     12727     12723     12726     12728     12723     12726     12729
     12724     12723     12725     12724     12723     12726     12725     12723     12726
     12726     12729     12730     12726     12729     12731     12726     12729     12732
     12727     12726     12728     12727     12726     12729     12728     12726     12729
     12729     12732     12733     12729     12732     12734     12729     12732     12735
     12730     12729     12731     12730     12729     12732     12731     12729     12732
     12733     12732     12734     12733     12732     12735     12734     12732     12735
     12736     12738     12739     12736     12740     12741     12736     12740     12742
     12736     12740     12743     12736     12782     12779     12736     12782     12783
     12736     12782     12784     12737     12736     12738     12737     12736     12740
     12737     12736     12782     12738     12736     12740     12738     12736     12782
     12740     12736     12782     12740     12743     12744     12740     12743     12774
     12741     12740     12742     12741     12740     12743     12742     12740     12743
     12743     12744     12745     12743     12744     12746     12743     12774     12772
     12743     12774     12775     12743     12774     12779     12744     12743     12774
     12744     12746     12747     12744     12746     12748     12744     12746     12749
     12745     12744     12746     12746     12749     12750     12746     12749     12751
     12746     12749     12772     12747     12746     12748     12747     12746     12749
     12748     12746     12749     12749     12751     12752     12749     12751     12753
     12749     12751     12761     12749     12772     12769     12749     12772     12773
     12749     12772     12774     12750     12749     12751     12750     12749     12772
     12751     12749     12772     12751     12753     12754     12751     12753     12755
     12751     12753     12756     12751     12761     12759     12751     12761     12762
     12751     12761     12766     12752     12751     12753     12752     12751     12761
     12753     12751     12761     12753     12756     12757     12753     12756     12758
     12753     12756     12759     12754     12753     12755     12754     12753     12756
     12755     12753     12756     12756     12759     12760     12756     12759     12761
     12756     12759     12785     12757     12756     12758     12757     12756     12759
     12758     12756     12759     12759     12761     12762     12759     12761     12766
     12759     12785     12786     12759     12785     12787     12759     12785     12791
     12760     12759     12761     12760     12759     12785     12761     12759     12785
     12761     12762     12763     12761     12762     12764     12761     12762     12765
     12761     12766     12767     12761     12766     12768     12761     12766     12769
     12762     12761     12766     12763     12762     12764     12763     12762     12765
     12764     12762     12765     12766     12769     12770     12766     12769     12771
     12766     12769     12772     12767     12766     12768     12767     12766     12769
     12768     12766     12769     12769     12772     12773     12769     12772     12774
     12770     12769     12771     12770     12769     12772     12771     12769     12772
     12772     12774     12775     12772     12774     12779     12773     12772     12774
     12774     12775     12776     12774     12775     12777     12774     12775     12778
     12774     12779     12780     12774     12779     12781     12774     12779     12782
     12775     12774     12779     12776     12775     12777     12776     12775     12778
     12777     12775     12778     12779     12782     12783     12779     12782     12784
     12780     12779     12781     12780     12779     12782     12781     12779     12782
     12783     12782     12784     12785     12787     12788     12785     12787     12789
     12785     12787     12790     12785     12791     12792     12785     12791     12793
     12785     12791     12794     12786     12785     12787     12786     12785     12791
     12787     12785     12791     12788     12787     12789     12788     12787     12790
     12789     12787     12790     12791     12794     12795     12791     12794     12796
     12791     12794     12797     12792     12791     12793     12792     12791     12794
     12793     12791     12794     12794     12797     12798     12794     12797     12799
     12794     12797     12800     12795     12794     12796     12795     12794     12797
     12796     12794     12797     12797     12800     12801     12797     12800     12802
     12797     12800     12806     12798     12797     12799     12798     12797     12800
     12799     12797     12800     12800     12802     12803     12800     12802     12804
     12800     12802     12805     12800     12806     12807     12800     12806     12808
     12800     12806     12809     12801     12800     12802     12801     12800     12806
     12802     12800     12806     12803     12802     12804     12803     12802     12805
     12804     12802     12805     12807     12806     12808     12807     12806     12809
     12808     12806     12809     12810     12812     12813     12810     12814     12815
     12810     12814     12816     12810     12814     12817     12810     12856     12853
     12810     12856     12857     12810     12856     12858     12811     12810     12812
     12811     12810     12814     12811     12810     12856     12812     12810     12814
     12812     12810     12856     12814     12810     12856     12814     12817     12818
     12814     12817     12848     12815     12814     12816     12815     12814     12817
     12816     12814     12817     12817     12818     12819     12817     12818     12820
     12817     12848     12846     12817     12848     12849     12817     12848     12853
     12818     12817     12848     12818     12820     12821     12818     12820     12822
     12818     12820     12823     12819     12818     12820     12820     12823     12824
     12820     12823     12825     12820     12823     12846     12821     12820     12822
     12821     12820     12823     12822     12820     12823     12823     12825     12826
     12823     12825     12827     12823     12825     12835     12823     12846     12843
     12823     12846     12847     12823     12846     12848     12824     12823     12825
     12824     12823     12846     12825     12823     12846     12825     12827     12828
     12825     12827     12829     12825     12827     12830     12825     12835     12833
     12825     12835     12836     12825     12835     12840     12826     12825     12827
     12826     12825     12835     12827     12825     12835     12827     12830     12831
     12827     12830     12832     12827     12830     12833     12828     12827     12829
     12828     12827     12830     12829     12827     12830     12830     12833     12834
     12830     12833     12835     12830     12833     12859     12831     12830     12832
     12831     12830     12833     12832     12830     12833     12833     12835     12836
     12833     12835     12840     12833     12859     12860     12833     12859     12861
     12833     12859     12865     12834     12833     12835     12834     12833     12859
     12835     12833     12859     12835     12836     12837     12835     12836     12838
     12835     12836     12839     12835     12840     12841     12835     12840     12842
     12835     12840     12843     12836     12835     12840     12837     12836     12838
     12837     12836     12839     12838     12836     12839     12840     12843     12844
     12840     12843     12845     12840     12843     12846     12841     12840     12842
     12841     12840     12843     12842     12840     12843     12843     12846     12847
     12843     12846     12848     12844     12843     12845     12844     12843     12846
     12845     12843     12846     12846     12848     12849     12846     12848     12853
     12847     12846     12848     12848     12849     12850     12848     12849     12851
     12848     12849     12852     12848     12853     12854     12848     12853     12855
     12848     12853     12856     12849     12848     12853     12850     12849     12851
     12850     12849     12852     12851     12849     12852     12853     12856     12857
     12853     12856     12858     12854     12853     12855     12854     12853     12856
     12855     12853     12856     12857     12856     12858     12859     12861     12862
     12859     12861     12863     12859     12861     12864     12859     12865     12866
     12859     12865     12867     12859     12865     12868     12860     12859     12861
     12860     12859     12865     12861     12859     12865     12862     12861     12863
     12862     12861     12864     12863     12861     12864     12865     12868     12869
     12865     12868     12870     12865     12868     12871     12866     12865     12867
     12866     12865     12868     12867     12865     12868     12868     12871     12872
     12868     12871     12873     12868     12871     12874     12869     12868     12870
     12869     12868     12871     12870     12868     12871     12871     12874     12875
     12871     12874     12876     12871     12874     12880     12872     12871     12873
     12872     12871     12874     12873     12871     12874     12874     12876     12877
     12874     12876     12878     12874     12876     12879     12874     12880     12881
     12874     12880     12882     12874     12880     12883     12875     12874     12876
     12875     12874     12880     12876     12874     12880     12877     12876     12878
     12877     12876     12879     12878     12876     12879     12881     12880     12882
     12881     12880     12883     12882     12880     12883     12884     12886     12887
     12884     12888     12889     12884     12888     12890     12884     12888     12891
     12884     12930     12927     12884     12930     12931     12884     12930     12932
     12885     12884     12886     12885     12884     12888     12885     12884     12930
     12886     12884     12888     12886     12884     12930     12888     12884     12930
     12888     12891     12892     12888     12891     12922     12889     12888     12890
     12889     12888     12891     12890     12888     12891     12891     12892     12893
     12891     12892     12894     12891     12922     12920     12891     12922     12923
     12891     12922     12927     12892     12891     12922     12892     12894     12895
     12892     12894     12896     12892     12894     12897     12893     12892     12894
     12894     12897     12898     12894     12897     12899     12894     12897     12920
     12895     12894     12896     12895     12894     12897     12896     12894     12897
     12897     12899     12900     12897     12899     12901     12897     12899     12909
     12897     12920     12917     12897     12920     12921     12897     12920     12922
     12898     12897     12899     12898     12897     12920     12899     12897     12920
     12899     12901     12902     12899     12901     12903     12899     12901     12904
     12899     12909     12907     12899     12909     12910     12899     12909     12914
     12900     12899     12901     12900     12899     12909     12901     12899     12909
     12901     12904     12905     12901     12904     12906     12901     12904     12907
     12902     12901     12903     12902     12901     12904     12903     12901     12904
     12904     12907     12908     12904     12907     12909     12904     12907     12933
     12905     12904     12906     12905     12904     12907     12906     12904     12907
     12907     12909     12910     12907     12909     12914     12907     12933     12934
     12907     12933     12935     12907     12933     12939     12908     12907     12909
     12908     12907     12933     12909     12907     12933     12909     12910     12911
     12909     12910     12912     12909     12910     12913     12909     12914     12915
     12909     12914     12916     12909     12914     12917     12910     12909     12914
     12911     12910     12912     12911     12910     12913     12912     12910     12913
     12914     12917     12918     12914     12917     12919     12914     12917     12920
     12915     12914     12916     12915     12914     12917     12916     12914     12917
     12917     12920     12921     12917     12920     12922     12918     12917     12919
     12918     12917     12920     12919     12917     12920     12920     12922     12923
     12920     12922     12927     12921     12920     12922     12922     12923     12924
     12922     12923     12925     12922     12923     12926     12922     12927     12928
     12922     12927     12929     12922     12927     12930     12923     12922     12927
     12924     12923     12925     12924     12923     12926     12925     12923     12926
     12927     12930     12931     12927     12930     12932     12928     12927     12929
     12928     12927     12930     12929     12927     12930     12931     12930     12932
     12933     12935     12936     12933     12935     12937     12933     12935     12938
     12933     12939     12940     12933     12939     12941     12933     12939     12942
     12934     12933     12935     12934     12933     12939     12935     12933     12939
     12936     12935     12937     12936     12935     12938     12937     12935     12938
     12939     12942     12943     12939     12942     12944     12939     12942     12945
     12940     12939     12941     12940     12939     12942     12941     12939     12942
     12942     12945     12946     12942     12945     12947     12942     12945     12948
     12943     12942     12944     12943     12942     12945     12944     12942     12945
     12945     12948     12949     12945     12948     12950     12945     12948     12954
     12946     12945     12947     12946     12945     12948     12947     12945     12948
     12948     12950     12951     12948     12950     12952     12948     12950     12953
     12948     12954     12955     12948     12954     12956     12948     12954     12957
     12949     12948     12950     12949     12948     12954     12950     12948     12954
     12951     12950     12952     12951     12950     12953     12952     12950     12953
     12955     12954     12956     12955     12954     12957     12956     12954     12957
     12958     12960     12961     12958     12962     12963     12958     12962     12964
     12958     12962     12965     12958     13004     13001     12958     13004     13005
     12958     13004     13006     12959     12958     12960     12959     12958     12962
     12959     12958     13004     12960     12958     12962     12960     12958     13004
     12962     12958     13004     12962     12965     12966     12962     12965     12996
     12963     12962     12964     12963     12962     12965     12964     12962     12965
     12965     12966     12967     12965     12966     12968     12965     12996     12994
     12965     12996     12997     12965     12996     13001     12966     12965     12996
     12966     12968     12969     12966     12968     12970     12966     12968     12971
     12967     12966     12968     12968     12971     12972     12968     12971     12973
     12968     12971     12994     12969     12968     12970     12969     12968     12971
     12970     12968     12971     12971     12973     12974     12971     12973     12975
     12971     12973     12983     12971     12994     12991     12971     12994     12995
     12971     12994     12996     12972     12971     12973     12972     12971     12994
     12973     12971     12994     12973     12975     12976     12973     12975     12977
     12973     12975     12978     12973     12983     12981     12973     12983     12984
     12973     12983     12988     12974     12973     12975     12974     12973     12983
     12975     12973     12983     12975     12978     12979     12975     12978     12980
     12975     12978     12981     12976     12975     12977     12976     12975     12978
     12977     12975     12978     12978     12981     12982     12978     12981     12983
     12978     12981     13007     12979     12978     12980     12979     12978     12981
     12980     12978     12981     12981     12983     12984     12981     12983     12988
     12981     13007     13008     12981     13007     13009     12981     13007     13013
     12982     12981     12983     12982     12981     13007     12983     12981     13007
     12983     12984     12985     12983     12984     12986     12983     12984     12987
     12983     12988     12989     12983     12988     12990     12983     12988     12991
     12984     12983     12988     12985     12984     12986     12985     12984     12987
     12986     12984     12987     12988     12991     12992     12988     12991     12993
     12988     12991     12994     12989     12988     12990     12989     12988     12991
     12990     12988     12991     12991     12994     12995     12991     12994     12996
     12992     12991     12993     12992     12991     12994     12993     12991     12994
     12994     12996     12997     12994     12996     13001     12995     12994     12996
     12996     12997     12998     12996     12997     12999     12996     12997     13000
     12996     13001     13002     12996     13001     13003     12996     13001     13004
     12997     12996     13001     12998     12997     12999     12998     12997     13000
     12999     12997     13000     13001     13004     13005     13001     13004     13006
     13002     13001     13003     13002     13001     13004     13003     13001     13004
     13005     13004     13006     13007     13009     13010     13007     13009     13011
     13007     13009     13012     13007     13013     13014     13007     13013     13015
     13007     13013     13016     13008     13007     13009     13008     13007     13013
     13009     13007     13013     13010     13009     13011     13010     13009     13012
     13011     13009     13012     13013     13016     13017     13013     13016     13018
     13013     13016     13019     13014     13013     13015     13014     13013     13016
     13015     13013     13016     13016     13019     13020     13016     13019     13021
     13016     13019     13022     13017     13016     13018     13017     13016     13019
     13018     13016     13019     13019     13022     13023     13019     13022     13024
     13019     13022     13028     13020     13019     13021     13020     13019     13022
     13021     13019     13022     13022     13024     13025     13022     13024     13026
     13022     13024     13027     13022     13028     13029     13022     13028     13030
     13022     13028     13031     13023     13022     13024     13023     13022     13028
     13024     13022     13028     13025     13024     13026     13025     13024     13027
     13026     13024     13027     13029     13028     13030     13029     13028     13031
     13030     13028     13031     13032     13036     13037     13032     13036     13038
     13032     13036     13039     13033     13032     13034     13033     13032     13035
     13033     13032     13036     13034     13032     13035     13034     13032     13036
     13035     13032     13036     13036     13039     13040     13036     13039     13041
     13036     13039     13045     13037     13036     13038     13037     13036     13039
     13038     13036     13039     13039     13045     13042     13040     13039     13041
     13040     13039     13045     13041     13039     13045     13042     13046     13047
     13043     13042     13044     13043     13042     13045     13043     13042     13046
     13044     13042     13045     13044     13042     13046     13045     13042     13046
     13046     13047     13048     13046     13047     13049     13046     13047     13050
     13047     13050     13051     13047     13050     13052     13047     13050     13058
     13048     13047     13049     13048     13047     13050     13049     13047     13050
     13050     13052     13053     13050     13058     13059     13050     13058     13060
     13050     13058     13061     13051     13050     13052     13051     13050     13058
     13052     13050     13058     13052     13053     13054     13052     13053     13055
     13053     13055     13056     13053     13055     13057     13053     13055     13067
     13054     13053     13055     13055     13067     13068     13055     13067     13069
     13055     13067     13070     13056     13055     13057     13056     13055     13067
     13057     13055     13067     13058     13061     13062     13059     13058     13060
     13059     13058     13061     13060     13058     13061     13061     13062     13063
     13061     13062     13064     13062     13064     13065     13062     13064     13066
     13062     13064     13114     13063     13062     13064     13064     13114     13115
     13064     13114     13116     13064     13114     13117     13065     13064     13066
     13065     13064     13114     13066     13064     13114     13067     13070     13071
     13067     13070     13072     13067     13070     13073     13068     13067     13069
     13068     13067     13070     13069     13067     13070     13070     13073     13074
     13070     13073     13075     13071     13070     13072     13071     13070     13073
     13072     13070     13073     13073     13075     13076     13073     13075     13077
     13074     13073     13075     13075     13077     13078     13075     13077     13079
     13075     13077     13080     13076     13075     13077     13077     13080     13081
     13077     13080     13082     13078     13077     13079     13078     13077     13080
     13079     13077     13080     13080     13082     13083     13080     13082     13084
     13081     13080     13082     13082     13084     13085     13082     13084     13086
     13082     13084     13087     13083     13082     13084     13084     13087     13088
     13084     13087     13089     13085     13084     13086     13085     13084     13087
     13086     13084     13087     13087     13089     13090     13087     13089     13091
     13088     13087     13089     13089     13091     13092     13089     13091     13093
     13089     13091     13094     13090     13089     13091     13091     13094     13095
     13091     13094     13096     13092     13091     13093     13092     13091     13094
     13093     13091     13094     13094     13096     13097     13094     13096     13098
     13095     13094     13096     13096     13098     13099     13096     13098     13100
     13096     13098     13101     13097     13096     13098     13098     13101     13102
     13098     13101     13103     13098     13101     13104     13099     13098     13100
     13099     13098     13101     13100     13098     13101     13101     13104     13105
     13101     13104     13106     13101     13104     13107     13102     13101     13103
     13102     13101     13104     13103     13101     13104     13104     13107     13108
     13104     13107     13109     13104     13107     13110     13105     13104     13106
     13105     13104     13107     13106     13104     13107     13107     13110     13111
     13107     13110     13112     13107     13110     13113     13108     13107     13109
     13108     13107     13110     13109     13107     13110     13111     13110     13112
     13111     13110     13113     13112     13110     13113     13114     13117     13118
     13114     13117     13119     13114     13117     13120     13115     13114     13116
     13115     13114     13117     13116     13114     13117     13117     13120     13121
     13117     13120     13122     13117     13120     13123     13118     13117     13119
     13118     13117     13120     13119     13117     13120     13120     13123     13124
     13120     13123     13125     13120     13123     13126     13121     13120     13122
     13121     13120     13123     13122     13120     13123     13123     13126     13127
     13123     13126     13128     13123     13126     13129     13124     13123     13125
     13124     13123     13126     13125     13123     13126     13126     13129     13130
     13126     13129     13131     13126     13129     13132     13127     13126     13128
     13127     13126     13129     13128     13126     13129     13129     13132     13133
     13129     13132     13134     13129     13132     13135     13130     13129     13131
     13130     13129     13132     13131     13129     13132     13132     13135     13136
     13132     13135     13137     13132     13135     13138     13133     13132     13134
     13133     13132     13135     13134     13132     13135     13135     13138     13139
     13135     13138     13140     13135     13138     13141     13136     13135     13137
     13136     13135     13138     13137     13135     13138     13138     13141     13142
     13138     13141     13143     13138     13141     13144     13139     13138     13140
     13139     13138     13141     13140     13138     13141     13141     13144     13145
     13141     13144     13146     13141     13144     13147     13142     13141     13143
     13142     13141     13144     13143     13141     13144     13144     13147     13148
     13144     13147     13149     13144     13147     13150     13145     13144     13146
     13145     13144     13147     13146     13144     13147     13147     13150     13151
     13147     13150     13152     13147     13150     13153     13148     13147     13149
     13148     13147     13150     13149     13147     13150     13150     13153     13154
     13150     13153     13155     13150     13153     13156     13151     13150     13152
     13151     13150     13153     13152     13150     13153     13153     13156     13157
     13153     13156     13158     13153     13156     13159     13154     13153     13155
     13154     13153     13156     13155     13153     13156     13156     13159     13160
     13156     13159     13161     13156     13159     13162     13157     13156     13158
     13157     13156     13159     13158     13156     13159     13160     13159     13161
     13160     13159     13162     13161     13159     13162     13163     13164     13165
     13163     13164     13166     13163     13164     13167     13163     13168     13169
     13163     13168     13170     13163     13168     13171     13163     13172     13173
     13163     13172     13174     13163     13172     13175     13163     13176     13177
     13163     13176     13178     13163     13176     13179     13164     13163     13168
     13164     13163     13172     13164     13163     13176     13165     13164     13166
     13165     13164     13167     13166     13164     13167     13168     13163     13172
     13168     13163     13176     13169     13168     13170     13169     13168     13171
     13170     13168     13171     13172     13163     13176     13173     13172     13174
     13173     13172     13175     13174     13172     13175     13176     13179     13180
     13176     13179     13181     13176     13179     13186     13177     13176     13178
     13177     13176     13179     13178     13176     13179     13179     13186     13182
     13180     13179     13181     13180     13179     13186     13181     13179     13186
     13182     13185     13187     13183     13182     13184     13183     13182     13185
     13183     13182     13186     13184     13182     13185     13184     13182     13186
     13185     13182     13186     13185     13187     13188     13185     13187     13189
     13185     13187     13192     13187     13192     13190     13187     13192     13193
     13187     13192     13194     13188     13187     13189     13188     13187     13192
     13189     13187     13192     13190     13192     13193     13190     13192     13194
     13190     13242     13243     13190     13242     13244     13191     13190     13192
     13191     13190     13242     13192     13190     13242     13192     13194     13195
     13192     13194     13196     13192     13194     13198     13193     13192     13194
     13194     13196     13197     13194     13198     13199     13194     13198     13200
     13195     13194     13196     13195     13194     13198     13196     13194     13198
     13198     13200     13201     13198     13200     13202     13199     13198     13200
     13200     13202     13203     13200     13202     13204     13200     13202     13205
     13201     13200     13202     13202     13205     13206     13202     13205     13207
     13202     13205     13208     13203     13202     13204     13203     13202     13205
     13204     13202     13205     13205     13208     13209     13205     13208     13210
     13205     13208     13211     13206     13205     13207     13206     13205     13208
     13207     13205     13208     13208     13211     13212     13208     13211     13213
     13208     13211     13214     13209     13208     13210     13209     13208     13211
     13210     13208     13211     13211     13214     13215     13211     13214     13216
     13211     13214     13217     13212     13211     13213     13212     13211     13214
     13213     13211     13214     13214     13217     13218     13214     13217     13219
     13214     13217     13220     13215     13214     13216     13215     13214     13217
     13216     13214     13217     13217     13220     13221     13217     13220     13222
     13217     13220     13223     13218     13217     13219     13218     13217     13220
     13219     13217     13220     13220     13223     13224     13220     13223     13225
     13220     13223     13226     13221     13220     13222     13221     13220     13223
     13222     13220     13223     13223     13226     13227     13223     13226     13228
     13223     13226     13229     13224     13223     13225     13224     13223     13226
     13225     13223     13226     13226     13229     13230     13226     13229     13231
     13226     13229     13232     13227     13226     13228     13227     13226     13229
     13228     13226     13229     13229     13232     13233     13229     13232     13234
     13229     13232     13235     13230     13229     13231     13230     13229     13232
     13231     13229     13232     13232     13235     13236     13232     13235     13237
     13232     13235     13238     13233     13232     13234     13233     13232     13235
     13234     13232     13235     13235     13238     13239     13235     13238     13240
     13235     13238     13241     13236     13235     13237     13236     13235     13238
     13237     13235     13238     13239     13238     13240     13239     13238     13241
     13240     13238     13241     13242     13244     13245     13242     13244     13246
     13242     13244     13247     13243     13242     13244     13244     13247     13248
     13244     13247     13249     13244     13247     13250     13245     13244     13246
     13245     13244     13247     13246     13244     13247     13247     13250     13251
     13247     13250     13252     13247     13250     13253     13248     13247     13249
     13248     13247     13250     13249     13247     13250     13250     13253     13254
     13250     13253     13255     13250     13253     13256     13251     13250     13252
     13251     13250     13253     13252     13250     13253     13253     13256     13257
     13253     13256     13258     13253     13256     13259     13254     13253     13255
     13254     13253     13256     13255     13253     13256     13256     13259     13260
     13256     13259     13261     13256     13259     13262     13257     13256     13258
     13257     13256     13259     13258     13256     13259     13259     13262     13263
     13259     13262     13264     13259     13262     13265     13260     13259     13261
     13260     13259     13262     13261     13259     13262     13262     13265     13266
     13262     13265     13267     13263     13262     13264     13263     13262     13265
     13264     13262     13265     13265     13267     13268     13265     13267     13269
     13266     13265     13267     13267     13269     13270     13267     13269     13271
     13267     13269     13272     13268     13267     13269     13269     13272     13273
     13269     13272     13274     13269     13272     13275     13270     13269     13271
     13270     13269     13272     13271     13269     13272     13272     13275     13276
     13272     13275     13277     13272     13275     13278     13273     13272     13274
     13273     13272     13275     13274     13272     13275     13275     13278     13279
     13275     13278     13280     13275     13278     13281     13276     13275     13277
     13276     13275     13278     13277     13275     13278     13278     13281     13282
     13278     13281     13283     13278     13281     13284     13279     13278     13280
     13279     13278     13281     13280     13278     13281     13281     13284     13285
     13281     13284     13286     13281     13284     13287     13282     13281     13283
     13282     13281     13284     13283     13281     13284     13284     13287     13288
     13284     13287     13289     13284     13287     13290     13285     13284     13286
     13285     13284     13287     13286     13284     13287     13287     13290     13291
     13287     13290     13292     13287     13290     13293     13288     13287     13289
     13288     13287     13290     13289     13287     13290     13291     13290     13292
     13291     13290     13293     13292     13290     13293     13294     13295     13296
     13294     13295     13297     13294     13295     13298     13294     13299     13300
     13294     13299     13301     13294     13299     13302     13294     13303     13304
     13294     13303     13305     13294     13303     13306     13294     13307     13308
     13294     13307     13309     13294     13307     13310     13295     13294     13299
     13295     13294     13303     13295     13294     13307     13296     13295     13297
     13296     13295     13298     13297     13295     13298     13299     13294     13303
     13299     13294     13307     13300     13299     13301     13300     13299     13302
     13301     13299     13302     13303     13294     13307     13304     13303     13305
     13304     13303     13306     13305     13303     13306     13307     13310     13311
     13307     13310     13312     13307     13310     13317     13308     13307     13309
     13308     13307     13310     13309     13307     13310     13310     13317     13313
     13311     13310     13312     13311     13310     13317     13312     13310     13317
     13313     13316     13318     13314     13313     13315     13314     13313     13316
     13314     13313     13317     13315     13313     13316     13315     13313     13317
     13316     13313     13317     13316     13318     13319     13316     13318     13320
     13316     13318     13323     13318     13323     13321     13318     13323     13324
     13318     13323     13325     13319     13318     13320     13319     13318     13323
     13320     13318     13323     13321     13323     13324     13321     13323     13325
     13321     13373     13374     13321     13373     13375     13322     13321     13323
     13322     13321     13373     13323     13321     13373     13323     13325     13326
     13323     13325     13327     13323     13325     13329     13324     13323     13325
     13325     13327     13328     13325     13329     13330     13325     13329     13331
     13326     13325     13327     13326     13325     13329     13327     13325     13329
     13329     13331     13332     13329     13331     13333     13330     13329     13331
     13331     13333     13334     13331     13333     13335     13331     13333     13336
     13332     13331     13333     13333     13336     13337     13333     13336     13338
     13333     13336     13339     13334     13333     13335     13334     13333     13336
     13335     13333     13336     13336     13339     13340     13336     13339     13341
     13336     13339     13342     13337     13336     13338     13337     13336     13339
     13338     13336     13339     13339     13342     13343     13339     13342     13344
     13339     13342     13345     13340     13339     13341     13340     13339     13342
     13341     13339     13342     13342     13345     13346     13342     13345     13347
     13342     13345     13348     13343     13342     13344     13343     13342     13345
     13344     13342     13345     13345     13348     13349     13345     13348     13350
     13345     13348     13351     13346     13345     13347     13346     13345     13348
     13347     13345     13348     13348     13351     13352     13348     13351     13353
     13348     13351     13354     13349     13348     13350     13349     13348     13351
     13350     13348     13351     13351     13354     13355     13351     13354     13356
     13351     13354     13357     13352     13351     13353     13352     13351     13354
     13353     13351     13354     13354     13357     13358     13354     13357     13359
     13354     13357     13360     13355     13354     13356     13355     13354     13357
     13356     13354     13357     13357     13360     13361     13357     13360     13362
     13357     13360     13363     13358     13357     13359     13358     13357     13360
     13359     13357     13360     13360     13363     13364     13360     13363     13365
     13360     13363     13366     13361     13360     13362     13361     13360     13363
     13362     13360     13363     13363     13366     13367     13363     13366     13368
     13363     13366     13369     13364     13363     13365     13364     13363     13366
     13365     13363     13366     13366     13369     13370     13366     13369     13371
     13366     13369     13372     13367     13366     13368     13367     13366     13369
     13368     13366     13369     13370     13369     13371     13370     13369     13372
     13371     13369     13372     13373     13375     13376     13373     13375     13377
     13373     13375     13378     13374     13373     13375     13375     13378     13379
     13375     13378     13380     13375     13378     13381     13376     13375     13377
     13376     13375     13378     13377     13375     13378     13378     13381     13382
     13378     13381     13383     13378     13381     13384     13379     13378     13380
     13379     13378     13381     13380     13378     13381     13381     13384     13385
     13381     13384     13386     13381     13384     13387     13382     13381     13383
     13382     13381     13384     13383     13381     13384     13384     13387     13388
     13384     13387     13389     13384     13387     13390     13385     13384     13386
     13385     13384     13387     13386     13384     13387     13387     13390     13391
     13387     13390     13392     13387     13390     13393     13388     13387     13389
     13388     13387     13390     13389     13387     13390     13390     13393     13394
     13390     13393     13395     13390     13393     13396     13391     13390     13392
     13391     13390     13393     13392     13390     13393     13393     13396     13397
     13393     13396     13398     13394     13393     13395     13394     13393     13396
     13395     13393     13396     13396     13398     13399     13396     13398     13400
     13397     13396     13398     13398     13400     13401     13398     13400     13402
     13398     13400     13403     13399     13398     13400     13400     13403     13404
     13400     13403     13405     13400     13403     13406     13401     13400     13402
     13401     13400     13403     13402     13400     13403     13403     13406     13407
     13403     13406     13408     13403     13406     13409     13404     13403     13405
     13404     13403     13406     13405     13403     13406     13406     13409     13410
     13406     13409     13411     13406     13409     13412     13407     13406     13408
     13407     13406     13409     13408     13406     13409     13409     13412     13413
     13409     13412     13414     13409     13412     13415     13410     13409     13411
     13410     13409     13412     13411     13409     13412     13412     13415     13416
     13412     13415     13417     13412     13415     13418     13413     13412     13414
     13413     13412     13415     13414     13412     13415     13415     13418     13419
     13415     13418     13420     13415     13418     13421     13416     13415     13417
     13416     13415     13418     13417     13415     13418     13418     13421     13422
     13418     13421     13423     13418     13421     13424     13419     13418     13420
     13419     13418     13421     13420     13418     13421     13422     13421     13423
     13422     13421     13424     13423     13421     13424     13425     13426     13427
     13425     13426     13428     13425     13426     13429     13425     13430     13431
     13425     13430     13432     13425     13430     13433     13425     13434     13435
     13425     13434     13436     13425     13434     13437     13425     13438     13439
     13425     13438     13440     13425     13438     13441     13426     13425     13430
     13426     13425     13434     13426     13425     13438     13427     13426     13428
     13427     13426     13429     13428     13426     13429     13430     13425     13434
     13430     13425     13438     13431     13430     13432     13431     13430     13433
     13432     13430     13433     13434     13425     13438     13435     13434     13436
     13435     13434     13437     13436     13434     13437     13438     13441     13442
     13438     13441     13443     13438     13441     13448     13439     13438     13440
     13439     13438     13441     13440     13438     13441     13441     13448     13444
     13442     13441     13443     13442     13441     13448     13443     13441     13448
     13444     13447     13449     13445     13444     13446     13445     13444     13447
     13445     13444     13448     13446     13444     13447     13446     13444     13448
     13447     13444     13448     13447     13449     13450     13447     13449     13451
     13447     13449     13454     13449     13454     13452     13449     13454     13455
     13449     13454     13456     13450     13449     13451     13450     13449     13454
     13451     13449     13454     13452     13454     13455     13452     13454     13456
     13452     13504     13505     13452     13504     13506     13453     13452     13454
     13453     13452     13504     13454     13452     13504     13454     13456     13457
     13454     13456     13458     13454     13456     13460     13455     13454     13456
     13456     13458     13459     13456     13460     13461     13456     13460     13462
     13457     13456     13458     13457     13456     13460     13458     13456     13460
     13460     13462     13463     13460     13462     13464     13461     13460     13462
     13462     13464     13465     13462     13464     13466     13462     13464     13467
     13463     13462     13464     13464     13467     13468     13464     13467     13469
     13464     13467     13470     13465     13464     13466     13465     13464     13467
     13466     13464     13467     13467     13470     13471     13467     13470     13472
     13467     13470     13473     13468     13467     13469     13468     13467     13470
     13469     13467     13470     13470     13473     13474     13470     13473     13475
     13470     13473     13476     13471     13470     13472     13471     13470     13473
     13472     13470     13473     13473     13476     13477     13473     13476     13478
     13473     13476     13479     13474     13473     13475     13474     13473     13476
     13475     13473     13476     13476     13479     13480     13476     13479     13481
     13476     13479     13482     13477     13476     13478     13477     13476     13479
     13478     13476     13479     13479     13482     13483     13479     13482     13484
     13479     13482     13485     13480     13479     13481     13480     13479     13482
     13481     13479     13482     13482     13485     13486     13482     13485     13487
     13482     13485     13488     13483     13482     13484     13483     13482     13485
     13484     13482     13485     13485     13488     13489     13485     13488     13490
     13485     13488     13491     13486     13485     13487     13486     13485     13488
     13487     13485     13488     13488     13491     13492     13488     13491     13493
     13488     13491     13494     13489     13488     13490     13489     13488     13491
     13490     13488     13491     13491     13494     13495     13491     13494     13496
     13491     13494     13497     13492     13491     13493     13492     13491     13494
     13493     13491     13494     13494     13497     13498     13494     13497     13499
     13494     13497     13500     13495     13494     13496     13495     13494     13497
     13496     13494     13497     13497     13500     13501     13497     13500     13502
     13497     13500     13503     13498     13497     13499     13498     13497     13500
     13499     13497     13500     13501     13500     13502     13501     13500     13503
     13502     13500     13503     13504     13506     13507     13504     13506     13508
     13504     13506     13509     13505     13504     13506     13506     13509     13510
     13506     13509     13511     13506     13509     13512     13507     13506     13508
     13507     13506     13509     13508     13506     13509     13509     13512     13513
     13509     13512     13514     13509     13512     13515     13510     13509     13511
     13510     13509     13512     13511     13509     13512     13512     13515     13516
     13512     13515     13517     13512     13515     13518     13513     13512     13514
     13513     13512     13515     13514     13512     13515     13515     13518     13519
     13515     13518     13520     13515     13518     13521     13516     13515     13517
     13516     13515     13518     13517     13515     13518     13518     13521     13522
     13518     13521     13523     13518     13521     13524     13519     13518     13520
     13519     13518     13521     13520     13518     13521     13521     13524     13525
     13521     13524     13526     13521     13524     13527     13522     13521     13523
     13522     13521     13524     13523     13521     13524     13524     13527     13528
     13524     13527     13529     13525     13524     13526     13525     13524     13527
     13526     13524     13527     13527     13529     13530     13527     13529     13531
     13528     13527     13529     13529     13531     13532     13529     13531     13533
     13529     13531     13534     13530     13529     13531     13531     13534     13535
     13531     13534     13536     13531     13534     13537     13532     13531     13533
     13532     13531     13534     13533     13531     13534     13534     13537     13538
     13534     13537     13539     13534     13537     13540     13535     13534     13536
     13535     13534     13537     13536     13534     13537     13537     13540     13541
     13537     13540     13542     13537     13540     13543     13538     13537     13539
     13538     13537     13540     13539     13537     13540     13540     13543     13544
     13540     13543     13545     13540     13543     13546     13541     13540     13542
     13541     13540     13543     13542     13540     13543     13543     13546     13547
     13543     13546     13548     13543     13546     13549     13544     13543     13545
     13544     13543     13546     13545     13543     13546     13546     13549     13550
     13546     13549     13551     13546     13549     13552     13547     13546     13548
     13547     13546     13549     13548     13546     13549     13549     13552     13553
     13549     13552     13554     13549     13552     13555     13550     13549     13551
     13550     13549     13552     13551     13549     13552     13553     13552     13554
     13553     13552     13555     13554     13552     13555     13556     13558     13559
     13556     13560     13561     13556     13560     13562     13556     13560     13563
     13556     13602     13599     13556     13602     13603     13556     13602     13604
     13557     13556     13558     13557     13556     13560     13557     13556     13602
     13558     13556     13560     13558     13556     13602     13560     13556     13602
     13560     13563     13564     13560     13563     13594     13561     13560     13562
     13561     13560     13563     13562     13560     13563     13563     13564     13565
     13563     13564     13566     13563     13594     13592     13563     13594     13595
     13563     13594     13599     13564     13563     13594     13564     13566     13567
     13564     13566     13568     13564     13566     13569     13565     13564     13566
     13566     13569     13570     13566     13569     13571     13566     13569     13592
     13567     13566     13568     13567     13566     13569     13568     13566     13569
     13569     13571     13572     13569     13571     13573     13569     13571     13581
     13569     13592     13589     13569     13592     13593     13569     13592     13594
     13570     13569     13571     13570     13569     13592     13571     13569     13592
     13571     13573     13574     13571     13573     13575     13571     13573     13576
     13571     13581     13579     13571     13581     13582     13571     13581     13586
     13572     13571     13573     13572     13571     13581     13573     13571     13581
     13573     13576     13577     13573     13576     13578     13573     13576     13579
     13574     13573     13575     13574     13573     13576     13575     13573     13576
     13576     13579     13580     13576     13579     13581     13576     13579     13605
     13577     13576     13578     13577     13576     13579     13578     13576     13579
     13579     13581     13582     13579     13581     13586     13579     13605     13606
     13579     13605     13607     13579     13605     13611     13580     13579     13581
     13580     13579     13605     13581     13579     13605     13581     13582     13583
     13581     13582     13584     13581     13582     13585     13581     13586     13587
     13581     13586     13588     13581     13586     13589     13582     13581     13586
     13583     13582     13584     13583     13582     13585     13584     13582     13585
     13586     13589     13590     13586     13589     13591     13586     13589     13592
     13587     13586     13588     13587     13586     13589     13588     13586     13589
     13589     13592     13593     13589     13592     13594     13590     13589     13591
     13590     13589     13592     13591     13589     13592     13592     13594     13595
     13592     13594     13599     13593     13592     13594     13594     13595     13596
     13594     13595     13597     13594     13595     13598     13594     13599     13600
     13594     13599     13601     13594     13599     13602     13595     13594     13599
     13596     13595     13597     13596     13595     13598     13597     13595     13598
     13599     13602     13603     13599     13602     13604     13600     13599     13601
     13600     13599     13602     13601     13599     13602     13603     13602     13604
     13605     13607     13608     13605     13607     13609     13605     13607     13610
     13605     13611     13612     13605     13611     13613     13605     13611     13614
     13606     13605     13607     13606     13605     13611     13607     13605     13611
     13608     13607     13609     13608     13607     13610     13609     13607     13610
     13611     13614     13615     13611     13614     13616     13611     13614     13617
     13612     13611     13613     13612     13611     13614     13613     13611     13614
     13614     13617     13618     13614     13617     13619     13614     13617     13620
     13615     13614     13616     13615     13614     13617     13616     13614     13617
     13617     13620     13621     13617     13620     13622     13617     13620     13626
     13618     13617     13619     13618     13617     13620     13619     13617     13620
     13620     13622     13623     13620     13622     13624     13620     13622     13625
     13620     13626     13627     13620     13626     13628     13620     13626     13629
     13621     13620     13622     13621     13620     13626     13622     13620     13626
     13623     13622     13624     13623     13622     13625     13624     13622     13625
     13627     13626     13628     13627     13626     13629     13628     13626     13629
     13630     13631     13632     13630     13631     13633     13630     13631     13634
     13630     13635     13636     13630     13635     13637     13630     13635     13638
     13630     13639     13640     13630     13639     13641     13630     13639     13642
     13630     13643     13644     13630     13643     13645     13630     13643     13646
     13631     13630     13635     13631     13630     13639     13631     13630     13643
     13632     13631     13633     13632     13631     13634     13633     13631     13634
     13635     13630     13639     13635     13630     13643     13636     13635     13637
     13636     13635     13638     13637     13635     13638     13639     13630     13643
     13640     13639     13641     13640     13639     13642     13641     13639     13642
     13643     13646     13647     13643     13646     13648     13643     13646     13653
     13644     13643     13645     13644     13643     13646     13645     13643     13646
     13646     13653     13649     13647     13646     13648     13647     13646     13653
     13648     13646     13653     13649     13652     13654     13650     13649     13651
     13650     13649     13652     13650     13649     13653     13651     13649     13652
     13651     13649     13653     13652     13649     13653     13652     13654     13655
     13652     13654     13656     13652     13654     13659     13654     13659     13657
     13654     13659     13660     13654     13659     13661     13655     13654     13656
     13655     13654     13659     13656     13654     13659     13657     13659     13660
     13657     13659     13661     13657     13709     13710     13657     13709     13711
     13658     13657     13659     13658     13657     13709     13659     13657     13709
     13659     13661     13662     13659     13661     13663     13659     13661     13665
     13660     13659     13661     13661     13663     13664     13661     13665     13666
     13661     13665     13667     13662     13661     13663     13662     13661     13665
     13663     13661     13665     13665     13667     13668     13665     13667     13669
     13666     13665     13667     13667     13669     13670     13667     13669     13671
     13667     13669     13672     13668     13667     13669     13669     13672     13673
     13669     13672     13674     13669     13672     13675     13670     13669     13671
     13670     13669     13672     13671     13669     13672     13672     13675     13676
     13672     13675     13677     13672     13675     13678     13673     13672     13674
     13673     13672     13675     13674     13672     13675     13675     13678     13679
     13675     13678     13680     13675     13678     13681     13676     13675     13677
     13676     13675     13678     13677     13675     13678     13678     13681     13682
     13678     13681     13683     13678     13681     13684     13679     13678     13680
     13679     13678     13681     13680     13678     13681     13681     13684     13685
     13681     13684     13686     13681     13684     13687     13682     13681     13683
     13682     13681     13684     13683     13681     13684     13684     13687     13688
     13684     13687     13689     13684     13687     13690     13685     13684     13686
     13685     13684     13687     13686     13684     13687     13687     13690     13691
     13687     13690     13692     13687     13690     13693     13688     13687     13689
     13688     13687     13690     13689     13687     13690     13690     13693     13694
     13690     13693     13695     13690     13693     13696     13691     13690     13692
     13691     13690     13693     13692     13690     13693     13693     13696     13697
     13693     13696     13698     13693     13696     13699     13694     13693     13695
     13694     13693     13696     13695     13693     13696     13696     13699     13700
     13696     13699     13701     13696     13699     13702     13697     13696     13698
     13697     13696     13699     13698     13696     13699     13699     13702     13703
     13699     13702     13704     13699     13702     13705     13700     13699     13701
     13700     13699     13702     13701     13699     13702     13702     13705     13706
     13702     13705     13707     13702     13705     13708     13703     13702     13704
     13703     13702     13705     13704     13702     13705     13706     13705     13707
     13706     13705     13708     13707     13705     13708     13709     13711     13712
     13709     13711     13713     13709     13711     13714     13710     13709     13711
     13711     13714     13715     13711     13714     13716     13711     13714     13717
     13712     13711     13713     13712     13711     13714     13713     13711     13714
     13714     13717     13718     13714     13717     13719     13714     13717     13720
     13715     13714     13716     13715     13714     13717     13716     13714     13717
     13717     13720     13721     13717     13720     13722     13717     13720     13723
     13718     13717     13719     13718     13717     13720     13719     13717     13720
     13720     13723     13724     13720     13723     13725     13720     13723     13726
     13721     13720     13722     13721     13720     13723     13722     13720     13723
     13723     13726     13727     13723     13726     13728     13723     13726     13729
     13724     13723     13725     13724     13723     13726     13725     13723     13726
     13726     13729     13730     13726     13729     13731     13726     13729     13732
     13727     13726     13728     13727     13726     13729     13728     13726     13729
     13729     13732     13733     13729     13732     13734     13730     13729     13731
     13730     13729     13732     13731     13729     13732     13732     13734     13735
     13732     13734     13736     13733     13732     13734     13734     13736     13737
     13734     13736     13738     13734     13736     13739     13735     13734     13736
     13736     13739     13740     13736     13739     13741     13736     13739     13742
     13737     13736     13738     13737     13736     13739     13738     13736     13739
     13739     13742     13743     13739     13742     13744     13739     13742     13745
     13740     13739     13741     13740     13739     13742     13741     13739     13742
     13742     13745     13746     13742     13745     13747     13742     13745     13748
     13743     13742     13744     13743     13742     13745     13744     13742     13745
     13745     13748     13749     13745     13748     13750     13745     13748     13751
     13746     13745     13747     13746     13745     13748     13747     13745     13748
     13748     13751     13752     13748     13751     13753     13748     13751     13754
     13749     13748     13750     13749     13748     13751     13750     13748     13751
     13751     13754     13755     13751     13754     13756     13751     13754     13757
     13752     13751     13753     13752     13751     13754     13753     13751     13754
     13754     13757     13758     13754     13757     13759     13754     13757     13760
     13755     13754     13756     13755     13754     13757     13756     13754     13757
     13758     13757     13759     13758     13757     13760     13759     13757     13760
     13761     13762     13763     13761     13762     13764     13761     13762     13765
     13761     13766     13767     13761     13766     13768     13761     13766     13769
     13761     13770     13771     13761     13770     13772     13761     13770     13773
     13761     13774     13775     13761     13774     13776     13761     13774     13777
     13762     13761     13766     13762     13761     13770     13762     13761     13774
     13763     13762     13764     13763     13762     13765     13764     13762     13765
     13766     13761     13770     13766     13761     13774     13767     13766     13768
     13767     13766     13769     13768     13766     13769     13770     13761     13774
     13771     13770     13772     13771     13770     13773     13772     13770     13773
     13774     13777     13778     13774     13777     13779     13774     13777     13784
     13775     13774     13776     13775     13774     13777     13776     13774     13777
     13777     13784     13780     13778     13777     13779     13778     13777     13784
     13779     13777     13784     13780     13783     13785     13781     13780     13782
     13781     13780     13783     13781     13780     13784     13782     13780     13783
     13782     13780     13784     13783     13780     13784     13783     13785     13786
     13783     13785     13787     13783     13785     13790     13785     13790     13788
     13785     13790     13791     13785     13790     13792     13786     13785     13787
     13786     13785     13790     13787     13785     13790     13788     13790     13791
     13788     13790     13792     13788     13840     13841     13788     13840     13842
     13789     13788     13790     13789     13788     13840     13790     13788     13840
     13790     13792     13793     13790     13792     13794     13790     13792     13796
     13791     13790     13792     13792     13794     13795     13792     13796     13797
     13792     13796     13798     13793     13792     13794     13793     13792     13796
     13794     13792     13796     13796     13798     13799     13796     13798     13800
     13797     13796     13798     13798     13800     13801     13798     13800     13802
     13798     13800     13803     13799     13798     13800     13800     13803     13804
     13800     13803     13805     13800     13803     13806     13801     13800     13802
     13801     13800     13803     13802     13800     13803     13803     13806     13807
     13803     13806     13808     13803     13806     13809     13804     13803     13805
     13804     13803     13806     13805     13803     13806     13806     13809     13810
     13806     13809     13811     13806     13809     13812     13807     13806     13808
     13807     13806     13809     13808     13806     13809     13809     13812     13813
     13809     13812     13814     13809     13812     13815     13810     13809     13811
     13810     13809     13812     13811     13809     13812     13812     13815     13816
     13812     13815     13817     13812     13815     13818     13813     13812     13814
     13813     13812     13815     13814     13812     13815     13815     13818     13819
     13815     13818     13820     13815     13818     13821     13816     13815     13817
     13816     13815     13818     13817     13815     13818     13818     13821     13822
     13818     13821     13823     13818     13821     13824     13819     13818     13820
     13819     13818     13821     13820     13818     13821     13821     13824     13825
     13821     13824     13826     13821     13824     13827     13822     13821     13823
     13822     13821     13824     13823     13821     13824     13824     13827     13828
     13824     13827     13829     13824     13827     13830     13825     13824     13826
     13825     13824     13827     13826     13824     13827     13827     13830     13831
     13827     13830     13832     13827     13830     13833     13828     13827     13829
     13828     13827     13830     13829     13827     13830     13830     13833     13834
     13830     13833     13835     13830     13833     13836     13831     13830     13832
     13831     13830     13833     13832     13830     13833     13833     13836     13837
     13833     13836     13838     13833     13836     13839     13834     13833     13835
     13834     13833     13836     13835     13833     13836     13837     13836     13838
     13837     13836     13839     13838     13836     13839     13840     13842     13843
     13840     13842     13844     13840     13842     13845     13841     13840     13842
     13842     13845     13846     13842     13845     13847     13842     13845     13848
     13843     13842     13844     13843     13842     13845     13844     13842     13845
     13845     13848     13849     13845     13848     13850     13845     13848     13851
     13846     13845     13847     13846     13845     13848     13847     13845     13848
     13848     13851     13852     13848     13851     13853     13848     13851     13854
     13849     13848     13850     13849     13848     13851     13850     13848     13851
     13851     13854     13855     13851     13854     13856     13851     13854     13857
     13852     13851     13853     13852     13851     13854     13853     13851     13854
     13854     13857     13858     13854     13857     13859     13854     13857     13860
     13855     13854     13856     13855     13854     13857     13856     13854     13857
     13857     13860     13861     13857     13860     13862     13857     13860     13863
     13858     13857     13859     13858     13857     13860     13859     13857     13860
     13860     13863     13864     13860     13863     13865     13861     13860     13862
     13861     13860     13863     13862     13860     13863     13863     13865     13866
     13863     13865     13867     13864     13863     13865     13865     13867     13868
     13865     13867     13869     13865     13867     13870     13866     13865     13867
     13867     13870     13871     13867     13870     13872     13867     13870     13873
     13868     13867     13869     13868     13867     13870     13869     13867     13870
     13870     13873     13874     13870     13873     13875     13870     13873     13876
     13871     13870     13872     13871     13870     13873     13872     13870     13873
     13873     13876     13877     13873     13876     13878     13873     13876     13879
     13874     13873     13875     13874     13873     13876     13875     13873     13876
     13876     13879     13880     13876     13879     13881     13876     13879     13882
     13877     13876     13878     13877     13876     13879     13878     13876     13879
     13879     13882     13883     13879     13882     13884     13879     13882     13885
     13880     13879     13881     13880     13879     13882     13881     13879     13882
     13882     13885     13886     13882     13885     13887     13882     13885     13888
     13883     13882     13884     13883     13882     13885     13884     13882     13885
     13885     13888     13889     13885     13888     13890     13885     13888     13891
     13886     13885     13887     13886     13885     13888     13887     13885     13888
     13889     13888     13890     13889     13888     13891     13890     13888     13891
     13892     13893     13894     13892     13893     13895     13892     13893     13896
     13892     13897     13898     13892     13897     13899     13892     13897     13900
     13892     13901     13902     13892     13901     13903     13892     13901     13904
     13892     13905     13906     13892     13905     13907     13892     13905     13908
     13893     13892     13897     13893     13892     13901     13893     13892     13905
     13894     13893     13895     13894     13893     13896     13895     13893     13896
     13897     13892     13901     13897     13892     13905     13898     13897     13899
     13898     13897     13900     13899     13897     13900     13901     13892     13905
     13902     13901     13903     13902     13901     13904     13903     13901     13904
     13905     13908     13909     13905     13908     13910     13905     13908     13915
     13906     13905     13907     13906     13905     13908     13907     13905     13908
     13908     13915     13911     13909     13908     13910     13909     13908     13915
     13910     13908     13915     13911     13914     13916     13912     13911     13913
     13912     13911     13914     13912     13911     13915     13913     13911     13914
     13913     13911     13915     13914     13911     13915     13914     13916     13917
     13914     13916     13918     13914     13916     13921     13916     13921     13919
     13916     13921     13922     13916     13921     13923     13917     13916     13918
     13917     13916     13921     13918     13916     13921     13919     13921     13922
     13919     13921     13923     13919     13971     13972     13919     13971     13973
     13920     13919     13921     13920     13919     13971     13921     13919     13971
     13921     13923     13924     13921     13923     13925     13921     13923     13927
     13922     13921     13923     13923     13925     13926     13923     13927     13928
     13923     13927     13929     13924     13923     13925     13924     13923     13927
     13925     13923     13927     13927     13929     13930     13927     13929     13931
     13928     13927     13929     13929     13931     13932     13929     13931     13933
     13929     13931     13934     13930     13929     13931     13931     13934     13935
     13931     13934     13936     13931     13934     13937     13932     13931     13933
     13932     13931     13934     13933     13931     13934     13934     13937     13938
     13934     13937     13939     13934     13937     13940     13935     13934     13936
     13935     13934     13937     13936     13934     13937     13937     13940     13941
     13937     13940     13942     13937     13940     13943     13938     13937     13939
     13938     13937     13940     13939     13937     13940     13940     13943     13944
     13940     13943     13945     13940     13943     13946     13941     13940     13942
     13941     13940     13943     13942     13940     13943     13943     13946     13947
     13943     13946     13948     13943     13946     13949     13944     13943     13945
     13944     13943     13946     13945     13943     13946     13946     13949     13950
     13946     13949     13951     13946     13949     13952     13947     13946     13948
     13947     13946     13949     13948     13946     13949     13949     13952     13953
     13949     13952     13954     13949     13952     13955     13950     13949     13951
     13950     13949     13952     13951     13949     13952     13952     13955     13956
     13952     13955     13957     13952     13955     13958     13953     13952     13954
     13953     13952     13955     13954     13952     13955     13955     13958     13959
     13955     13958     13960     13955     13958     13961     13956     13955     13957
     13956     13955     13958     13957     13955     13958     13958     13961     13962
     13958     13961     13963     13958     13961     13964     13959     13958     13960
     13959     13958     13961     13960     13958     13961     13961     13964     13965
     13961     13964     13966     13961     13964     13967     13962     13961     13963
     13962     13961     13964     13963     13961     13964     13964     13967     13968
     13964     13967     13969     13964     13967     13970     13965     13964     13966
     13965     13964     13967     13966     13964     13967     13968     13967     13969
     13968     13967     13970     13969     13967     13970     13971     13973     13974
     13971     13973     13975     13971     13973     13976     13972     13971     13973
     13973     13976     13977     13973     13976     13978     13973     13976     13979
     13974     13973     13975     13974     13973     13976     13975     13973     13976
     13976     13979     13980     13976     13979     13981     13976     13979     13982
     13977     13976     13978     13977     13976     13979     13978     13976     13979
     13979     13982     13983     13979     13982     13984     13979     13982     13985
     13980     13979     13981     13980     13979     13982     13981     13979     13982
     13982     13985     13986     13982     13985     13987     13982     13985     13988
     13983     13982     13984     13983     13982     13985     13984     13982     13985
     13985     13988     13989     13985     13988     13990     13985     13988     13991
     13986     13985     13987     13986     13985     13988     13987     13985     13988
     13988     13991     13992     13988     13991     13993     13988     13991     13994
     13989     13988     13990     13989     13988     13991     13990     13988     13991
     13991     13994     13995     13991     13994     13996     13992     13991     13993
     13992     13991     13994     13993     13991     13994     13994     13996     13997
     13994     13996     13998     13995     13994     13996     13996     13998     13999
     13996     13998     14000     13996     13998     14001     13997     13996     13998
     13998     14001     14002     13998     14001     14003     13998     14001     14004
     13999     13998     14000     13999     13998     14001     14000     13998     14001
     14001     14004     14005     14001     14004     14006     14001     14004     14007
     14002     14001     14003     14002     14001     14004     14003     14001     14004
     14004     14007     14008     14004     14007     14009     14004     14007     14010
     14005     14004     14006     14005     14004     14007     14006     14004     14007
     14007     14010     14011     14007     14010     14012     14007     14010     14013
     14008     14007     14009     14008     14007     14010     14009     14007     14010
     14010     14013     14014     14010     14013     14015     14010     14013     14016
     14011     14010     14012     14011     14010     14013     14012     14010     14013
     14013     14016     14017     14013     14016     14018     14013     14016     14019
     14014     14013     14015     14014     14013     14016     14015     14013     14016
     14016     14019     14020     14016     14019     14021     14016     14019     14022
     14017     14016     14018     14017     14016     14019     14018     14016     14019
     14020     14019     14021     14020     14019     14022     14021     14019     14022
     14023     14024     14025     14023     14024     14026     14023     14024     14027
     14023     14028     14029     14023     14028     14030     14023     14028     14031
     14023     14032     14033     14023     14032     14034     14023     14032     14035
     14023     14036     14037     14023     14036     14038     14023     14036     14039
     14024     14023     14028     14024     14023     14032     14024     14023     14036
     14025     14024     14026     14025     14024     14027     14026     14024     14027
     14028     14023     14032     14028     14023     14036     14029     14028     14030
     14029     14028     14031     14030     14028     14031     14032     14023     14036
     14033     14032     14034     14033     14032     14035     14034     14032     14035
     14036     14039     14040     14036     14039     14041     14036     14039     14046
     14037     14036     14038     14037     14036     14039     14038     14036     14039
     14039     14046     14042     14040     14039     14041     14040     14039     14046
     14041     14039     14046     14042     14045     14047     14043     14042     14044
     14043     14042     14045     14043     14042     14046     14044     14042     14045
     14044     14042     14046     14045     14042     14046     14045     14047     14048
     14045     14047     14049     14045     14047     14052     14047     14052     14050
     14047     14052     14053     14047     14052     14054     14048     14047     14049
     14048     14047     14052     14049     14047     14052     14050     14052     14053
     14050     14052     14054     14050     14102     14103     14050     14102     14104
     14051     14050     14052     14051     14050     14102     14052     14050     14102
     14052     14054     14055     14052     14054     14056     14052     14054     14058
     14053     14052     14054     14054     14056     14057     14054     14058     14059
     14054     14058     14060     14055     14054     14056     14055     14054     14058
     14056     14054     14058     14058     14060     14061     14058     14060     14062
     14059     14058     14060     14060     14062     14063     14060     14062     14064
     14060     14062     14065     14061     14060     14062     14062     14065     14066
     14062     14065     14067     14062     14065     14068     14063     14062     14064
     14063     14062     14065     14064     14062     14065     14065     14068     14069
     14065     14068     14070     14065     14068     14071     14066     14065     14067
     14066     14065     14068     14067     14065     14068     14068     14071     14072
     14068     14071     14073     14068     14071     14074     14069     14068     14070
     14069     14068     14071     14070     14068     14071     14071     14074     14075
     14071     14074     14076     14071     14074     14077     14072     14071     14073
     14072     14071     14074     14073     14071     14074     14074     14077     14078
     14074     14077     14079     14074     14077     14080     14075     14074     14076
     14075     14074     14077     14076     14074     14077     14077     14080     14081
     14077     14080     14082     14077     14080     14083     14078     14077     14079
     14078     14077     14080     14079     14077     14080     14080     14083     14084
     14080     14083     14085     14080     14083     14086     14081     14080     14082
     14081     14080     14083     14082     14080     14083     14083     14086     14087
     14083     14086     14088     14083     14086     14089     14084     14083     14085
     14084     14083     14086     14085     14083     14086     14086     14089     14090
     14086     14089     14091     14086     14089     14092     14087     14086     14088
     14087     14086     14089     14088     14086     14089     14089     14092     14093
     14089     14092     14094     14089     14092     14095     14090     14089     14091
     14090     14089     14092     14091     14089     14092     14092     14095     14096
     14092     14095     14097     14092     14095     14098     14093     14092     14094
     14093     14092     14095     14094     14092     14095     14095     14098     14099
     14095     14098     14100     14095     14098     14101     14096     14095     14097
     14096     14095     14098     14097     14095     14098     14099     14098     14100
     14099     14098     14101     14100     14098     14101     14102     14104     14105
     14102     14104     14106     14102     14104     14107     14103     14102     14104
     14104     14107     14108     14104     14107     14109     14104     14107     14110
     14105     14104     14106     14105     14104     14107     14106     14104     14107
     14107     14110     14111     14107     14110     14112     14107     14110     14113
     14108     14107     14109     14108     14107     14110     14109     14107     14110
     14110     14113     14114     14110     14113     14115     14110     14113     14116
     14111     14110     14112     14111     14110     14113     14112     14110     14113
     14113     14116     14117     14113     14116     14118     14113     14116     14119
     14114     14113     14115     14114     14113     14116     14115     14113     14116
     14116     14119     14120     14116     14119     14121     14116     14119     14122
     14117     14116     14118     14117     14116     14119     14118     14116     14119
     14119     14122     14123     14119     14122     14124     14119     14122     14125
     14120     14119     14121     14120     14119     14122     14121     14119     14122
     14122     14125     14126     14122     14125     14127     14123     14122     14124
     14123     14122     14125     14124     14122     14125     14125     14127     14128
     14125     14127     14129     14126     14125     14127     14127     14129     14130
     14127     14129     14131     14127     14129     14132     14128     14127     14129
     14129     14132     14133     14129     14132     14134     14129     14132     14135
     14130     14129     14131     14130     14129     14132     14131     14129     14132
     14132     14135     14136     14132     14135     14137     14132     14135     14138
     14133     14132     14134     14133     14132     14135     14134     14132     14135
     14135     14138     14139     14135     14138     14140     14135     14138     14141
     14136     14135     14137     14136     14135     14138     14137     14135     14138
     14138     14141     14142     14138     14141     14143     14138     14141     14144
     14139     14138     14140     14139     14138     14141     14140     14138     14141
     14141     14144     14145     14141     14144     14146     14141     14144     14147
     14142     14141     14143     14142     14141     14144     14143     14141     14144
     14144     14147     14148     14144     14147     14149     14144     14147     14150
     14145     14144     14146     14145     14144     14147     14146     14144     14147
     14147     14150     14151     14147     14150     14152     14147     14150     14153
     14148     14147     14149     14148     14147     14150     14149     14147     14150
     14151     14150     14152     14151     14150     14153     14152     14150     14153
     14154     14156     14157     14154     14158     14159     14154     14158     14160
     14154     14158     14161     14154     14200     14197     14154     14200     14201
     14154     14200     14202     14155     14154     14156     14155     14154     14158
     14155     14154     14200     14156     14154     14158     14156     14154     14200
     14158     14154     14200     14158     14161     14162     14158     14161     14192
     14159     14158     14160     14159     14158     14161     14160     14158     14161
     14161     14162     14163     14161     14162     14164     14161     14192     14190
     14161     14192     14193     14161     14192     14197     14162     14161     14192
     14162     14164     14165     14162     14164     14166     14162     14164     14167
     14163     14162     14164     14164     14167     14168     14164     14167     14169
     14164     14167     14190     14165     14164     14166     14165     14164     14167
     14166     14164     14167     14167     14169     14170     14167     14169     14171
     14167     14169     14179     14167     14190     14187     14167     14190     14191
     14167     14190     14192     14168     14167     14169     14168     14167     14190
     14169     14167     14190     14169     14171     14172     14169     14171     14173
     14169     14171     14174     14169     14179     14177     14169     14179     14180
     14169     14179     14184     14170     14169     14171     14170     14169     14179
     14171     14169     14179     14171     14174     14175     14171     14174     14176
     14171     14174     14177     14172     14171     14173     14172     14171     14174
     14173     14171     14174     14174     14177     14178     14174     14177     14179
     14174     14177     14203     14175     14174     14176     14175     14174     14177
     14176     14174     14177     14177     14179     14180     14177     14179     14184
     14177     14203     14204     14177     14203     14205     14177     14203     14209
     14178     14177     14179     14178     14177     14203     14179     14177     14203
     14179     14180     14181     14179     14180     14182     14179     14180     14183
     14179     14184     14185     14179     14184     14186     14179     14184     14187
     14180     14179     14184     14181     14180     14182     14181     14180     14183
     14182     14180     14183     14184     14187     14188     14184     14187     14189
     14184     14187     14190     14185     14184     14186     14185     14184     14187
     14186     14184     14187     14187     14190     14191     14187     14190     14192
     14188     14187     14189     14188     14187     14190     14189     14187     14190
     14190     14192     14193     14190     14192     14197     14191     14190     14192
     14192     14193     14194     14192     14193     14195     14192     14193     14196
     14192     14197     14198     14192     14197     14199     14192     14197     14200
     14193     14192     14197     14194     14193     14195     14194     14193     14196
     14195     14193     14196     14197     14200     14201     14197     14200     14202
     14198     14197     14199     14198     14197     14200     14199     14197     14200
     14201     14200     14202     14203     14205     14206     14203     14205     14207
     14203     14205     14208     14203     14209     14210     14203     14209     14211
     14203     14209     14212     14204     14203     14205     14204     14203     14209
     14205     14203     14209     14206     14205     14207     14206     14205     14208
     14207     14205     14208     14209     14212     14213     14209     14212     14214
     14209     14212     14215     14210     14209     14211     14210     14209     14212
     14211     14209     14212     14212     14215     14216     14212     14215     14217
     14212     14215     14218     14213     14212     14214     14213     14212     14215
     14214     14212     14215     14215     14218     14219     14215     14218     14220
     14215     14218     14224     14216     14215     14217     14216     14215     14218
     14217     14215     14218     14218     14220     14221     14218     14220     14222
     14218     14220     14223     14218     14224     14225     14218     14224     14226
     14218     14224     14227     14219     14218     14220     14219     14218     14224
     14220     14218     14224     14221     14220     14222     14221     14220     14223
     14222     14220     14223     14225     14224     14226     14225     14224     14227
     14226     14224     14227     14228     14230     14231     14228     14232     14233
     14228     14232     14234     14228     14232     14235     14228     14274     14271
     14228     14274     14275     14228     14274     14276     14229     14228     14230
     14229     14228     14232     14229     14228     14274     14230     14228     14232
     14230     14228     14274     14232     14228     14274     14232     14235     14236
     14232     14235     14266     14233     14232     14234     14233     14232     14235
     14234     14232     14235     14235     14236     14237     14235     14236     14238
     14235     14266     14264     14235     14266     14267     14235     14266     14271
     14236     14235     14266     14236     14238     14239     14236     14238     14240
     14236     14238     14241     14237     14236     14238     14238     14241     14242
     14238     14241     14243     14238     14241     14264     14239     14238     14240
     14239     14238     14241     14240     14238     14241     14241     14243     14244
     14241     14243     14245     14241     14243     14253     14241     14264     14261
     14241     14264     14265     14241     14264     14266     14242     14241     14243
     14242     14241     14264     14243     14241     14264     14243     14245     14246
     14243     14245     14247     14243     14245     14248     14243     14253     14251
     14243     14253     14254     14243     14253     14258     14244     14243     14245
     14244     14243     14253     14245     14243     14253     14245     14248     14249
     14245     14248     14250     14245     14248     14251     14246     14245     14247
     14246     14245     14248     14247     14245     14248     14248     14251     14252
     14248     14251     14253     14248     14251     14277     14249     14248     14250
     14249     14248     14251     14250     14248     14251     14251     14253     14254
     14251     14253     14258     14251     14277     14278     14251     14277     14279
     14251     14277     14283     14252     14251     14253     14252     14251     14277
     14253     14251     14277     14253     14254     14255     14253     14254     14256
     14253     14254     14257     14253     14258     14259     14253     14258     14260
     14253     14258     14261     14254     14253     14258     14255     14254     14256
     14255     14254     14257     14256     14254     14257     14258     14261     14262
     14258     14261     14263     14258     14261     14264     14259     14258     14260
     14259     14258     14261     14260     14258     14261     14261     14264     14265
     14261     14264     14266     14262     14261     14263     14262     14261     14264
     14263     14261     14264     14264     14266     14267     14264     14266     14271
     14265     14264     14266     14266     14267     14268     14266     14267     14269
     14266     14267     14270     14266     14271     14272     14266     14271     14273
     14266     14271     14274     14267     14266     14271     14268     14267     14269
     14268     14267     14270     14269     14267     14270     14271     14274     14275
     14271     14274     14276     14272     14271     14273     14272     14271     14274
     14273     14271     14274     14275     14274     14276     14277     14279     14280
     14277     14279     14281     14277     14279     14282     14277     14283     14284
     14277     14283     14285     14277     14283     14286     14278     14277     14279
     14278     14277     14283     14279     14277     14283     14280     14279     14281
     14280     14279     14282     14281     14279     14282     14283     14286     14287
     14283     14286     14288     14283     14286     14289     14284     14283     14285
     14284     14283     14286     14285     14283     14286     14286     14289     14290
     14286     14289     14291     14286     14289     14292     14287     14286     14288
     14287     14286     14289     14288     14286     14289     14289     14292     14293
     14289     14292     14294     14289     14292     14298     14290     14289     14291
     14290     14289     14292     14291     14289     14292     14292     14294     14295
     14292     14294     14296     14292     14294     14297     14292     14298     14299
     14292     14298     14300     14292     14298     14301     14293     14292     14294
     14293     14292     14298     14294     14292     14298     14295     14294     14296
     14295     14294     14297     14296     14294     14297     14299     14298     14300
     14299     14298     14301     14300     14298     14301     14302     14303     14304
     14302     14303     14305     14302     14303     14306     14302     14307     14308
     14302     14307     14309     14302     14307     14310     14302     14311     14312
     14302     14311     14313     14302     14311     14314     14302     14315     14316
     14302     14315     14317     14302     14315     14318     14303     14302     14307
     14303     14302     14311     14303     14302     14315     14304     14303     14305
     14304     14303     14306     14305     14303     14306     14307     14302     14311
     14307     14302     14315     14308     14307     14309     14308     14307     14310
     14309     14307     14310     14311     14302     14315     14312     14311     14313
     14312     14311     14314     14313     14311     14314     14315     14318     14319
     14315     14318     14320     14315     14318     14325     14316     14315     14317
     14316     14315     14318     14317     14315     14318     14318     14325     14321
     14319     14318     14320     14319     14318     14325     14320     14318     14325
     14321     14324     14326     14322     14321     14323     14322     14321     14324
     14322     14321     14325     14323     14321     14324     14323     14321     14325
     14324     14321     14325     14324     14326     14327     14324     14326     14328
     14324     14326     14331     14326     14331     14329     14326     14331     14332
     14326     14331     14333     14327     14326     14328     14327     14326     14331
     14328     14326     14331     14329     14331     14332     14329     14331     14333
     14329     14381     14382     14329     14381     14383     14330     14329     14331
     14330     14329     14381     14331     14329     14381     14331     14333     14334
     14331     14333     14335     14331     14333     14337     14332     14331     14333
     14333     14335     14336     14333     14337     14338     14333     14337     14339
     14334     14333     14335     14334     14333     14337     14335     14333     14337
     14337     14339     14340     14337     14339     14341     14338     14337     14339
     14339     14341     14342     14339     14341     14343     14339     14341     14344
     14340     14339     14341     14341     14344     14345     14341     14344     14346
     14341     14344     14347     14342     14341     14343     14342     14341     14344
     14343     14341     14344     14344     14347     14348     14344     14347     14349
     14344     14347     14350     14345     14344     14346     14345     14344     14347
     14346     14344     14347     14347     14350     14351     14347     14350     14352
     14347     14350     14353     14348     14347     14349     14348     14347     14350
     14349     14347     14350     14350     14353     14354     14350     14353     14355
     14350     14353     14356     14351     14350     14352     14351     14350     14353
     14352     14350     14353     14353     14356     14357     14353     14356     14358
     14353     14356     14359     14354     14353     14355     14354     14353     14356
     14355     14353     14356     14356     14359     14360     14356     14359     14361
     14356     14359     14362     14357     14356     14358     14357     14356     14359
     14358     14356     14359     14359     14362     14363     14359     14362     14364
     14359     14362     14365     14360     14359     14361     14360     14359     14362
     14361     14359     14362     14362     14365     14366     14362     14365     14367
     14362     14365     14368     14363     14362     14364     14363     14362     14365
     14364     14362     14365     14365     14368     14369     14365     14368     14370
     14365     14368     14371     14366     14365     14367     14366     14365     14368
     14367     14365     14368     14368     14371     14372     14368     14371     14373
     14368     14371     14374     14369     14368     14370     14369     14368     14371
     14370     14368     14371     14371     14374     14375     14371     14374     14376
     14371     14374     14377     14372     14371     14373     14372     14371     14374
     14373     14371     14374     14374     14377     14378     14374     14377     14379
     14374     14377     14380     14375     14374     14376     14375     14374     14377
     14376     14374     14377     14378     14377     14379     14378     14377     14380
     14379     14377     14380     14381     14383     14384     14381     14383     14385
     14381     14383     14386     14382     14381     14383     14383     14386     14387
     14383     14386     14388     14383     14386     14389     14384     14383     14385
     14384     14383     14386     14385     14383     14386     14386     14389     14390
     14386     14389     14391     14386     14389     14392     14387     14386     14388
     14387     14386     14389     14388     14386     14389     14389     14392     14393
     14389     14392     14394     14389     14392     14395     14390     14389     14391
     14390     14389     14392     14391     14389     14392     14392     14395     14396
     14392     14395     14397     14392     14395     14398     14393     14392     14394
     14393     14392     14395     14394     14392     14395     14395     14398     14399
     14395     14398     14400     14395     14398     14401     14396     14395     14397
     14396     14395     14398     14397     14395     14398     14398     14401     14402
     14398     14401     14403     14398     14401     14404     14399     14398     14400
     14399     14398     14401     14400     14398     14401     14401     14404     14405
     14401     14404     14406     14402     14401     14403     14402     14401     14404
     14403     14401     14404     14404     14406     14407     14404     14406     14408
     14405     14404     14406     14406     14408     14409     14406     14408     14410
     14406     14408     14411     14407     14406     14408     14408     14411     14412
     14408     14411     14413     14408     14411     14414     14409     14408     14410
     14409     14408     14411     14410     14408     14411     14411     14414     14415
     14411     14414     14416     14411     14414     14417     14412     14411     14413
     14412     14411     14414     14413     14411     14414     14414     14417     14418
     14414     14417     14419     14414     14417     14420     14415     14414     14416
     14415     14414     14417     14416     14414     14417     14417     14420     14421
     14417     14420     14422     14417     14420     14423     14418     14417     14419
     14418     14417     14420     14419     14417     14420     14420     14423     14424
     14420     14423     14425     14420     14423     14426     14421     14420     14422
     14421     14420     14423     14422     14420     14423     14423     14426     14427
     14423     14426     14428     14423     14426     14429     14424     14423     14425
     14424     14423     14426     14425     14423     14426     14426     14429     14430
     14426     14429     14431     14426     14429     14432     14427     14426     14428
     14427     14426     14429     14428     14426     14429     14430     14429     14431
     14430     14429     14432     14431     14429     14432     14433     14435     14436
     14433     14437     14438     14433     14437     14439     14433     14437     14440
     14433     14479     14476     14433     14479     14480     14433     14479     14481
     14434     14433     14435     14434     14433     14437     14434     14433     14479
     14435     14433     14437     14435     14433     14479     14437     14433     14479
     14437     14440     14441     14437     14440     14471     14438     14437     14439
     14438     14437     14440     14439     14437     14440     14440     14441     14442
     14440     14441     14443     14440     14471     14469     14440     14471     14472
     14440     14471     14476     14441     14440     14471     14441     14443     14444
     14441     14443     14445     14441     14443     14446     14442     14441     14443
     14443     14446     14447     14443     14446     14448     14443     14446     14469
     14444     14443     14445     14444     14443     14446     14445     14443     14446
     14446     14448     14449     14446     14448     14450     14446     14448     14458
     14446     14469     14466     14446     14469     14470     14446     14469     14471
     14447     14446     14448     14447     14446     14469     14448     14446     14469
     14448     14450     14451     14448     14450     14452     14448     14450     14453
     14448     14458     14456     14448     14458     14459     14448     14458     14463
     14449     14448     14450     14449     14448     14458     14450     14448     14458
     14450     14453     14454     14450     14453     14455     14450     14453     14456
     14451     14450     14452     14451     14450     14453     14452     14450     14453
     14453     14456     14457     14453     14456     14458     14453     14456     14482
     14454     14453     14455     14454     14453     14456     14455     14453     14456
     14456     14458     14459     14456     14458     14463     14456     14482     14483
     14456     14482     14484     14456     14482     14488     14457     14456     14458
     14457     14456     14482     14458     14456     14482     14458     14459     14460
     14458     14459     14461     14458     14459     14462     14458     14463     14464
     14458     14463     14465     14458     14463     14466     14459     14458     14463
     14460     14459     14461     14460     14459     14462     14461     14459     14462
     14463     14466     14467     14463     14466     14468     14463     14466     14469
     14464     14463     14465     14464     14463     14466     14465     14463     14466
     14466     14469     14470     14466     14469     14471     14467     14466     14468
     14467     14466     14469     14468     14466     14469     14469     14471     14472
     14469     14471     14476     14470     14469     14471     14471     14472     14473
     14471     14472     14474     14471     14472     14475     14471     14476     14477
     14471     14476     14478     14471     14476     14479     14472     14471     14476
     14473     14472     14474     14473     14472     14475     14474     14472     14475
     14476     14479     14480     14476     14479     14481     14477     14476     14478
     14477     14476     14479     14478     14476     14479     14480     14479     14481
     14482     14484     14485     14482     14484     14486     14482     14484     14487
     14482     14488     14489     14482     14488     14490     14482     14488     14491
     14483     14482     14484     14483     14482     14488     14484     14482     14488
     14485     14484     14486     14485     14484     14487     14486     14484     14487
     14488     14491     14492     14488     14491     14493     14488     14491     14494
     14489     14488     14490     14489     14488     14491     14490     14488     14491
     14491     14494     14495     14491     14494     14496     14491     14494     14497
     14492     14491     14493     14492     14491     14494     14493     14491     14494
     14494     14497     14498     14494     14497     14499     14494     14497     14503
     14495     14494     14496     14495     14494     14497     14496     14494     14497
     14497     14499     14500     14497     14499     14501     14497     14499     14502
     14497     14503     14504     14497     14503     14505     14497     14503     14506
     14498     14497     14499     14498     14497     14503     14499     14497     14503
     14500     14499     14501     14500     14499     14502     14501     14499     14502
     14504     14503     14505     14504     14503     14506     14505     14503     14506
     14507     14509     14510     14507     14511     14512     14507     14511     14513
     14507     14511     14514     14507     14553     14550     14507     14553     14554
     14507     14553     14555     14508     14507     14509     14508     14507     14511
     14508     14507     14553     14509     14507     14511     14509     14507     14553
     14511     14507     14553     14511     14514     14515     14511     14514     14545
     14512     14511     14513     14512     14511     14514     14513     14511     14514
     14514     14515     14516     14514     14515     14517     14514     14545     14543
     14514     14545     14546     14514     14545     14550     14515     14514     14545
     14515     14517     14518     14515     14517     14519     14515     14517     14520
     14516     14515     14517     14517     14520     14521     14517     14520     14522
     14517     14520     14543     14518     14517     14519     14518     14517     14520
     14519     14517     14520     14520     14522     14523     14520     14522     14524
     14520     14522     14532     14520     14543     14540     14520     14543     14544
     14520     14543     14545     14521     14520     14522     14521     14520     14543
     14522     14520     14543     14522     14524     14525     14522     14524     14526
     14522     14524     14527     14522     14532     14530     14522     14532     14533
     14522     14532     14537     14523     14522     14524     14523     14522     14532
     14524     14522     14532     14524     14527     14528     14524     14527     14529
     14524     14527     14530     14525     14524     14526     14525     14524     14527
     14526     14524     14527     14527     14530     14531     14527     14530     14532
     14527     14530     14556     14528     14527     14529     14528     14527     14530
     14529     14527     14530     14530     14532     14533     14530     14532     14537
     14530     14556     14557     14530     14556     14558     14530     14556     14562
     14531     14530     14532     14531     14530     14556     14532     14530     14556
     14532     14533     14534     14532     14533     14535     14532     14533     14536
     14532     14537     14538     14532     14537     14539     14532     14537     14540
     14533     14532     14537     14534     14533     14535     14534     14533     14536
     14535     14533     14536     14537     14540     14541     14537     14540     14542
     14537     14540     14543     14538     14537     14539     14538     14537     14540
     14539     14537     14540     14540     14543     14544     14540     14543     14545
     14541     14540     14542     14541     14540     14543     14542     14540     14543
     14543     14545     14546     14543     14545     14550     14544     14543     14545
     14545     14546     14547     14545     14546     14548     14545     14546     14549
     14545     14550     14551     14545     14550     14552     14545     14550     14553
     14546     14545     14550     14547     14546     14548     14547     14546     14549
     14548     14546     14549     14550     14553     14554     14550     14553     14555
     14551     14550     14552     14551     14550     14553     14552     14550     14553
     14554     14553     14555     14556     14558     14559     14556     14558     14560
     14556     14558     14561     14556     14562     14563     14556     14562     14564
     14556     14562     14565     14557     14556     14558     14557     14556     14562
     14558     14556     14562     14559     14558     14560     14559     14558     14561
     14560     14558     14561     14562     14565     14566     14562     14565     14567
     14562     14565     14568     14563     14562     14564     14563     14562     14565
     14564     14562     14565     14565     14568     14569     14565     14568     14570
     14565     14568     14571     14566     14565     14567     14566     14565     14568
     14567     14565     14568     14568     14571     14572     14568     14571     14573
     14568     14571     14577     14569     14568     14570     14569     14568     14571
     14570     14568     14571     14571     14573     14574     14571     14573     14575
     14571     14573     14576     14571     14577     14578     14571     14577     14579
     14571     14577     14580     14572     14571     14573     14572     14571     14577
     14573     14571     14577     14574     14573     14575     14574     14573     14576
     14575     14573     14576     14578     14577     14579     14578     14577     14580
     14579     14577     14580     14581     14583     14584     14581     14585     14586
     14581     14585     14587     14581     14585     14588     14581     14627     14624
     14581     14627     14628     14581     14627     14629     14582     14581     14583
     14582     14581     14585     14582     14581     14627     14583     14581     14585
     14583     14581     14627     14585     14581     14627     14585     14588     14589
     14585     14588     14619     14586     14585     14587     14586     14585     14588
     14587     14585     14588     14588     14589     14590     14588     14589     14591
     14588     14619     14617     14588     14619     14620     14588     14619     14624
     14589     14588     14619     14589     14591     14592     14589     14591     14593
     14589     14591     14594     14590     14589     14591     14591     14594     14595
     14591     14594     14596     14591     14594     14617     14592     14591     14593
     14592     14591     14594     14593     14591     14594     14594     14596     14597
     14594     14596     14598     14594     14596     14606     14594     14617     14614
     14594     14617     14618     14594     14617     14619     14595     14594     14596
     14595     14594     14617     14596     14594     14617     14596     14598     14599
     14596     14598     14600     14596     14598     14601     14596     14606     14604
     14596     14606     14607     14596     14606     14611     14597     14596     14598
     14597     14596     14606     14598     14596     14606     14598     14601     14602
     14598     14601     14603     14598     14601     14604     14599     14598     14600
     14599     14598     14601     14600     14598     14601     14601     14604     14605
     14601     14604     14606     14601     14604     14630     14602     14601     14603
     14602     14601     14604     14603     14601     14604     14604     14606     14607
     14604     14606     14611     14604     14630     14631     14604     14630     14632
     14604     14630     14636     14605     14604     14606     14605     14604     14630
     14606     14604     14630     14606     14607     14608     14606     14607     14609
     14606     14607     14610     14606     14611     14612     14606     14611     14613
     14606     14611     14614     14607     14606     14611     14608     14607     14609
     14608     14607     14610     14609     14607     14610     14611     14614     14615
     14611     14614     14616     14611     14614     14617     14612     14611     14613
     14612     14611     14614     14613     14611     14614     14614     14617     14618
     14614     14617     14619     14615     14614     14616     14615     14614     14617
     14616     14614     14617     14617     14619     14620     14617     14619     14624
     14618     14617     14619     14619     14620     14621     14619     14620     14622
     14619     14620     14623     14619     14624     14625     14619     14624     14626
     14619     14624     14627     14620     14619     14624     14621     14620     14622
     14621     14620     14623     14622     14620     14623     14624     14627     14628
     14624     14627     14629     14625     14624     14626     14625     14624     14627
     14626     14624     14627     14628     14627     14629     14630     14632     14633
     14630     14632     14634     14630     14632     14635     14630     14636     14637
     14630     14636     14638     14630     14636     14639     14631     14630     14632
     14631     14630     14636     14632     14630     14636     14633     14632     14634
     14633     14632     14635     14634     14632     14635     14636     14639     14640
     14636     14639     14641     14636     14639     14642     14637     14636     14638
     14637     14636     14639     14638     14636     14639     14639     14642     14643
     14639     14642     14644     14639     14642     14645     14640     14639     14641
     14640     14639     14642     14641     14639     14642     14642     14645     14646
     14642     14645     14647     14642     14645     14651     14643     14642     14644
     14643     14642     14645     14644     14642     14645     14645     14647     14648
     14645     14647     14649     14645     14647     14650     14645     14651     14652
     14645     14651     14653     14645     14651     14654     14646     14645     14647
     14646     14645     14651     14647     14645     14651     14648     14647     14649
     14648     14647     14650     14649     14647     14650     14652     14651     14653
     14652     14651     14654     14653     14651     14654     14655     14659     14660
     14655     14659     14661     14655     14659     14662     14656     14655     14657
     14656     14655     14658     14656     14655     14659     14657     14655     14658
     14657     14655     14659     14658     14655     14659     14659     14662     14663
     14659     14662     14664     14659     14662     14668     14660     14659     14661
     14660     14659     14662     14661     14659     14662     14662     14668     14665
     14663     14662     14664     14663     14662     14668     14664     14662     14668
     14665     14669     14670     14666     14665     14667     14666     14665     14668
     14666     14665     14669     14667     14665     14668     14667     14665     14669
     14668     14665     14669     14669     14670     14671     14669     14670     14672
     14669     14670     14673     14670     14673     14674     14670     14673     14675
     14670     14673     14681     14671     14670     14672     14671     14670     14673
     14672     14670     14673     14673     14675     14676     14673     14681     14682
     14673     14681     14683     14673     14681     14684     14674     14673     14675
     14674     14673     14681     14675     14673     14681     14675     14676     14677
     14675     14676     14678     14676     14678     14679     14676     14678     14680
     14676     14678     14690     14677     14676     14678     14678     14690     14691
     14678     14690     14692     14678     14690     14693     14679     14678     14680
     14679     14678     14690     14680     14678     14690     14681     14684     14685
     14682     14681     14683     14682     14681     14684     14683     14681     14684
     14684     14685     14686     14684     14685     14687     14685     14687     14688
     14685     14687     14689     14685     14687     14737     14686     14685     14687
     14687     14737     14738     14687     14737     14739     14687     14737     14740
     14688     14687     14689     14688     14687     14737     14689     14687     14737
     14690     14693     14694     14690     14693     14695     14690     14693     14696
     14691     14690     14692     14691     14690     14693     14692     14690     14693
     14693     14696     14697     14693     14696     14698     14694     14693     14695
     14694     14693     14696     14695     14693     14696     14696     14698     14699
     14696     14698     14700     14697     14696     14698     14698     14700     14701
     14698     14700     14702     14698     14700     14703     14699     14698     14700
     14700     14703     14704     14700     14703     14705     14701     14700     14702
     14701     14700     14703     14702     14700     14703     14703     14705     14706
     14703     14705     14707     14704     14703     14705     14705     14707     14708
     14705     14707     14709     14705     14707     14710     14706     14705     14707
     14707     14710     14711     14707     14710     14712     14708     14707     14709
     14708     14707     14710     14709     14707     14710     14710     14712     14713
     14710     14712     14714     14711     14710     14712     14712     14714     14715
     14712     14714     14716     14712     14714     14717     14713     14712     14714
     14714     14717     14718     14714     14717     14719     14715     14714     14716
     14715     14714     14717     14716     14714     14717     14717     14719     14720
     14717     14719     14721     14718     14717     14719     14719     14721     14722
     14719     14721     14723     14719     14721     14724     14720     14719     14721
     14721     14724     14725     14721     14724     14726     14721     14724     14727
     14722     14721     14723     14722     14721     14724     14723     14721     14724
     14724     14727     14728     14724     14727     14729     14724     14727     14730
     14725     14724     14726     14725     14724     14727     14726     14724     14727
     14727     14730     14731     14727     14730     14732     14727     14730     14733
     14728     14727     14729     14728     14727     14730     14729     14727     14730
     14730     14733     14734     14730     14733     14735     14730     14733     14736
     14731     14730     14732     14731     14730     14733     14732     14730     14733
     14734     14733     14735     14734     14733     14736     14735     14733     14736
     14737     14740     14741     14737     14740     14742     14737     14740     14743
     14738     14737     14739     14738     14737     14740     14739     14737     14740
     14740     14743     14744     14740     14743     14745     14740     14743     14746
     14741     14740     14742     14741     14740     14743     14742     14740     14743
     14743     14746     14747     14743     14746     14748     14743     14746     14749
     14744     14743     14745     14744     14743     14746     14745     14743     14746
     14746     14749     14750     14746     14749     14751     14746     14749     14752
     14747     14746     14748     14747     14746     14749     14748     14746     14749
     14749     14752     14753     14749     14752     14754     14749     14752     14755
     14750     14749     14751     14750     14749     14752     14751     14749     14752
     14752     14755     14756     14752     14755     14757     14752     14755     14758
     14753     14752     14754     14753     14752     14755     14754     14752     14755
     14755     14758     14759     14755     14758     14760     14755     14758     14761
     14756     14755     14757     14756     14755     14758     14757     14755     14758
     14758     14761     14762     14758     14761     14763     14758     14761     14764
     14759     14758     14760     14759     14758     14761     14760     14758     14761
     14761     14764     14765     14761     14764     14766     14761     14764     14767
     14762     14761     14763     14762     14761     14764     14763     14761     14764
     14764     14767     14768     14764     14767     14769     14764     14767     14770
     14765     14764     14766     14765     14764     14767     14766     14764     14767
     14767     14770     14771     14767     14770     14772     14767     14770     14773
     14768     14767     14769     14768     14767     14770     14769     14767     14770
     14770     14773     14774     14770     14773     14775     14770     14773     14776
     14771     14770     14772     14771     14770     14773     14772     14770     14773
     14773     14776     14777     14773     14776     14778     14773     14776     14779
     14774     14773     14775     14774     14773     14776     14775     14773     14776
     14776     14779     14780     14776     14779     14781     14776     14779     14782
     14777     14776     14778     14777     14776     14779     14778     14776     14779
     14779     14782     14783     14779     14782     14784     14779     14782     14785
     14780     14779     14781     14780     14779     14782     14781     14779     14782
     14783     14782     14784     14783     14782     14785     14784     14782     14785
     14786     14788     14789     14786     14790     14791     14786     14790     14792
     14786     14790     14793     14786     14832     14829     14786     14832     14833
     14786     14832     14834     14787     14786     14788     14787     14786     14790
     14787     14786     14832     14788     14786     14790     14788     14786     14832
     14790     14786     14832     14790     14793     14794     14790     14793     14824
     14791     14790     14792     14791     14790     14793     14792     14790     14793
     14793     14794     14795     14793     14794     14796     14793     14824     14822
     14793     14824     14825     14793     14824     14829     14794     14793     14824
     14794     14796     14797     14794     14796     14798     14794     14796     14799
     14795     14794     14796     14796     14799     14800     14796     14799     14801
     14796     14799     14822     14797     14796     14798     14797     14796     14799
     14798     14796     14799     14799     14801     14802     14799     14801     14803
     14799     14801     14811     14799     14822     14819     14799     14822     14823
     14799     14822     14824     14800     14799     14801     14800     14799     14822
     14801     14799     14822     14801     14803     14804     14801     14803     14805
     14801     14803     14806     14801     14811     14809     14801     14811     14812
     14801     14811     14816     14802     14801     14803     14802     14801     14811
     14803     14801     14811     14803     14806     14807     14803     14806     14808
     14803     14806     14809     14804     14803     14805     14804     14803     14806
     14805     14803     14806     14806     14809     14810     14806     14809     14811
     14806     14809     14835     14807     14806     14808     14807     14806     14809
     14808     14806     14809     14809     14811     14812     14809     14811     14816
     14809     14835     14836     14809     14835     14837     14809     14835     14841
     14810     14809     14811     14810     14809     14835     14811     14809     14835
     14811     14812     14813     14811     14812     14814     14811     14812     14815
     14811     14816     14817     14811     14816     14818     14811     14816     14819
     14812     14811     14816     14813     14812     14814     14813     14812     14815
     14814     14812     14815     14816     14819     14820     14816     14819     14821
     14816     14819     14822     14817     14816     14818     14817     14816     14819
     14818     14816     14819     14819     14822     14823     14819     14822     14824
     14820     14819     14821     14820     14819     14822     14821     14819     14822
     14822     14824     14825     14822     14824     14829     14823     14822     14824
     14824     14825     14826     14824     14825     14827     14824     14825     14828
     14824     14829     14830     14824     14829     14831     14824     14829     14832
     14825     14824     14829     14826     14825     14827     14826     14825     14828
     14827     14825     14828     14829     14832     14833     14829     14832     14834
     14830     14829     14831     14830     14829     14832     14831     14829     14832
     14833     14832     14834     14835     14837     14838     14835     14837     14839
     14835     14837     14840     14835     14841     14842     14835     14841     14843
     14835     14841     14844     14836     14835     14837     14836     14835     14841
     14837     14835     14841     14838     14837     14839     14838     14837     14840
     14839     14837     14840     14841     14844     14845     14841     14844     14846
     14841     14844     14847     14842     14841     14843     14842     14841     14844
     14843     14841     14844     14844     14847     14848     14844     14847     14849
     14844     14847     14850     14845     14844     14846     14845     14844     14847
     14846     14844     14847     14847     14850     14851     14847     14850     14852
     14847     14850     14856     14848     14847     14849     14848     14847     14850
     14849     14847     14850     14850     14852     14853     14850     14852     14854
     14850     14852     14855     14850     14856     14857     14850     14856     14858
     14850     14856     14859     14851     14850     14852     14851     14850     14856
     14852     14850     14856     14853     14852     14854     14853     14852     14855
     14854     14852     14855     14857     14856     14858     14857     14856     14859
     14858     14856     14859     14860     14864     14865     14860     14864     14866
     14860     14864     14869     14861     14860     14862     14861     14860     14863
     14861     14860     14864     14862     14860     14863     14862     14860     14864
     14863     14860     14864     14864     14866     14867     14864     14866     14868
     14864     14869     14870     14864     14869     14871     14864     14869     14875
     14865     14864     14866     14865     14864     14869     14866     14864     14869
     14867     14866     14868     14869     14875     14872     14870     14869     14871
     14870     14869     14875     14871     14869     14875     14872     14876     14877
     14873     14872     14874     14873     14872     14875     14873     14872     14876
     14874     14872     14875     14874     14872     14876     14875     14872     14876
     14876     14877     14878     14876     14877     14879     14876     14877     14880
     14877     14880     14881     14877     14880     14882     14877     14880     14888
     14878     14877     14879     14878     14877     14880     14879     14877     14880
     14880     14882     14883     14880     14888     14889     14880     14888     14890
     14880     14888     14891     14881     14880     14882     14881     14880     14888
     14882     14880     14888     14882     14883     14884     14882     14883     14885
     14883     14885     14886     14883     14885     14887     14883     14885     14897
     14884     14883     14885     14885     14897     14898     14885     14897     14899
     14885     14897     14900     14886     14885     14887     14886     14885     14897
     14887     14885     14897     14888     14891     14892     14889     14888     14890
     14889     14888     14891     14890     14888     14891     14891     14892     14893
     14891     14892     14894     14892     14894     14895     14892     14894     14896
     14892     14894     14944     14893     14892     14894     14894     14944     14945
     14894     14944     14946     14894     14944     14947     14895     14894     14896
     14895     14894     14944     14896     14894     14944     14897     14900     14901
     14897     14900     14902     14897     14900     14903     14898     14897     14899
     14898     14897     14900     14899     14897     14900     14900     14903     14904
     14900     14903     14905     14901     14900     14902     14901     14900     14903
     14902     14900     14903     14903     14905     14906     14903     14905     14907
     14904     14903     14905     14905     14907     14908     14905     14907     14909
     14905     14907     14910     14906     14905     14907     14907     14910     14911
     14907     14910     14912     14908     14907     14909     14908     14907     14910
     14909     14907     14910     14910     14912     14913     14910     14912     14914
     14911     14910     14912     14912     14914     14915     14912     14914     14916
     14912     14914     14917     14913     14912     14914     14914     14917     14918
     14914     14917     14919     14915     14914     14916     14915     14914     14917
     14916     14914     14917     14917     14919     14920     14917     14919     14921
     14918     14917     14919     14919     14921     14922     14919     14921     14923
     14919     14921     14924     14920     14919     14921     14921     14924     14925
     14921     14924     14926     14922     14921     14923     14922     14921     14924
     14923     14921     14924     14924     14926     14927     14924     14926     14928
     14925     14924     14926     14926     14928     14929     14926     14928     14930
     14926     14928     14931     14927     14926     14928     14928     14931     14932
     14928     14931     14933     14928     14931     14934     14929     14928     14930
     14929     14928     14931     14930     14928     14931     14931     14934     14935
     14931     14934     14936     14931     14934     14937     14932     14931     14933
     14932     14931     14934     14933     14931     14934     14934     14937     14938
     14934     14937     14939     14934     14937     14940     14935     14934     14936
     14935     14934     14937     14936     14934     14937     14937     14940     14941
     14937     14940     14942     14937     14940     14943     14938     14937     14939
     14938     14937     14940     14939     14937     14940     14941     14940     14942
     14941     14940     14943     14942     14940     14943     14944     14947     14948
     14944     14947     14949     14944     14947     14950     14945     14944     14946
     14945     14944     14947     14946     14944     14947     14947     14950     14951
     14947     14950     14952     14947     14950     14953     14948     14947     14949
     14948     14947     14950     14949     14947     14950     14950     14953     14954
     14950     14953     14955     14950     14953     14956     14951     14950     14952
     14951     14950     14953     14952     14950     14953     14953     14956     14957
     14953     14956     14958     14953     14956     14959     14954     14953     14955
     14954     14953     14956     14955     14953     14956     14956     14959     14960
     14956     14959     14961     14956     14959     14962     14957     14956     14958
     14957     14956     14959     14958     14956     14959     14959     14962     14963
     14959     14962     14964     14959     14962     14965     14960     14959     14961
     14960     14959     14962     14961     14959     14962     14962     14965     14966
     14962     14965     14967     14962     14965     14968     14963     14962     14964
     14963     14962     14965     14964     14962     14965     14965     14968     14969
     14965     14968     14970     14965     14968     14971     14966     14965     14967
     14966     14965     14968     14967     14965     14968     14968     14971     14972
     14968     14971     14973     14968     14971     14974     14969     14968     14970
     14969     14968     14971     14970     14968     14971     14971     14974     14975
     14971     14974     14976     14971     14974     14977     14972     14971     14973
     14972     14971     14974     14973     14971     14974     14974     14977     14978
     14974     14977     14979     14974     14977     14980     14975     14974     14976
     14975     14974     14977     14976     14974     14977     14977     14980     14981
     14977     14980     14982     14977     14980     14983     14978     14977     14979
     14978     14977     14980     14979     14977     14980     14980     14983     14984
     14980     14983     14985     14980     14983     14986     14981     14980     14982
     14981     14980     14983     14982     14980     14983     14983     14986     14987
     14983     14986     14988     14983     14986     14989     14984     14983     14985
     14984     14983     14986     14985     14983     14986     14986     14989     14990
     14986     14989     14991     14986     14989     14992     14987     14986     14988
     14987     14986     14989     14988     14986     14989     14990     14989     14991
     14990     14989     14992     14991     14989     14992     14993     14994     14995
     14993     14994     14996     14993     14994     14997     14993     14998     14999
     14993     14998     15000     14993     14998     15001     14993     15002     15003
     14993     15002     15004     14993     15002     15005     14993     15006     15007
     14993     15006     15008     14993     15006     15009     14994     14993     14998
     14994     14993     15002     14994     14993     15006     14995     14994     14996
     14995     14994     14997     14996     14994     14997     14998     14993     15002
     14998     14993     15006     14999     14998     15000     14999     14998     15001
     15000     14998     15001     15002     14993     15006     15003     15002     15004
     15003     15002     15005     15004     15002     15005     15006     15009     15010
     15006     15009     15011     15006     15009     15016     15007     15006     15008
     15007     15006     15009     15008     15006     15009     15009     15016     15012
     15010     15009     15011     15010     15009     15016     15011     15009     15016
     15012     15015     15017     15013     15012     15014     15013     15012     15015
     15013     15012     15016     15014     15012     15015     15014     15012     15016
     15015     15012     15016     15015     15017     15018     15015     15017     15019
     15015     15017     15022     15017     15022     15020     15017     15022     15023
     15017     15022     15024     15018     15017     15019     15018     15017     15022
     15019     15017     15022     15020     15022     15023     15020     15022     15024
     15020     15072     15073     15020     15072     15074     15021     15020     15022
     15021     15020     15072     15022     15020     15072     15022     15024     15025
     15022     15024     15026     15022     15024     15028     15023     15022     15024
     15024     15026     15027     15024     15028     15029     15024     15028     15030
     15025     15024     15026     15025     15024     15028     15026     15024     15028
     15028     15030     15031     15028     15030     15032     15029     15028     15030
     15030     15032     15033     15030     15032     15034     15030     15032     15035
     15031     15030     15032     15032     15035     15036     15032     15035     15037
     15032     15035     15038     15033     15032     15034     15033     15032     15035
     15034     15032     15035     15035     15038     15039     15035     15038     15040
     15035     15038     15041     15036     15035     15037     15036     15035     15038
     15037     15035     15038     15038     15041     15042     15038     15041     15043
     15038     15041     15044     15039     15038     15040     15039     15038     15041
     15040     15038     15041     15041     15044     15045     15041     15044     15046
     15041     15044     15047     15042     15041     15043     15042     15041     15044
     15043     15041     15044     15044     15047     15048     15044     15047     15049
     15044     15047     15050     15045     15044     15046     15045     15044     15047
     15046     15044     15047     15047     15050     15051     15047     15050     15052
     15047     15050     15053     15048     15047     15049     15048     15047     15050
     15049     15047     15050     15050     15053     15054     15050     15053     15055
     15050     15053     15056     15051     15050     15052     15051     15050     15053
     15052     15050     15053     15053     15056     15057     15053     15056     15058
     15053     15056     15059     15054     15053     15055     15054     15053     15056
     15055     15053     15056     15056     15059     15060     15056     15059     15061
     15056     15059     15062     15057     15056     15058     15057     15056     15059
     15058     15056     15059     15059     15062     15063     15059     15062     15064
     15059     15062     15065     15060     15059     15061     15060     15059     15062
     15061     15059     15062     15062     15065     15066     15062     15065     15067
     15062     15065     15068     15063     15062     15064     15063     15062     15065
     15064     15062     15065     15065     15068     15069     15065     15068     15070
     15065     15068     15071     15066     15065     15067     15066     15065     15068
     15067     15065     15068     15069     15068     15070     15069     15068     15071
     15070     15068     15071     15072     15074     15075     15072     15074     15076
     15072     15074     15077     15073     15072     15074     15074     15077     15078
     15074     15077     15079     15074     15077     15080     15075     15074     15076
     15075     15074     15077     15076     15074     15077     15077     15080     15081
     15077     15080     15082     15077     15080     15083     15078     15077     15079
     15078     15077     15080     15079     15077     15080     15080     15083     15084
     15080     15083     15085     15080     15083     15086     15081     15080     15082
     15081     15080     15083     15082     15080     15083     15083     15086     15087
     15083     15086     15088     15083     15086     15089     15084     15083     15085
     15084     15083     15086     15085     15083     15086     15086     15089     15090
     15086     15089     15091     15086     15089     15092     15087     15086     15088
     15087     15086     15089     15088     15086     15089     15089     15092     15093
     15089     15092     15094     15089     15092     15095     15090     15089     15091
     15090     15089     15092     15091     15089     15092     15092     15095     15096
     15092     15095     15097     15093     15092     15094     15093     15092     15095
     15094     15092     15095     15095     15097     15098     15095     15097     15099
     15096     15095     15097     15097     15099     15100     15097     15099     15101
     15097     15099     15102     15098     15097     15099     15099     15102     15103
     15099     15102     15104     15099     15102     15105     15100     15099     15101
     15100     15099     15102     15101     15099     15102     15102     15105     15106
     15102     15105     15107     15102     15105     15108     15103     15102     15104
     15103     15102     15105     15104     15102     15105     15105     15108     15109
     15105     15108     15110     15105     15108     15111     15106     15105     15107
     15106     15105     15108     15107     15105     15108     15108     15111     15112
     15108     15111     15113     15108     15111     15114     15109     15108     15110
     15109     15108     15111     15110     15108     15111     15111     15114     15115
     15111     15114     15116     15111     15114     15117     15112     15111     15113
     15112     15111     15114     15113     15111     15114     15114     15117     15118
     15114     15117     15119     15114     15117     15120     15115     15114     15116
     15115     15114     15117     15116     15114     15117     15117     15120     15121
     15117     15120     15122     15117     15120     15123     15118     15117     15119
     15118     15117     15120     15119     15117     15120     15121     15120     15122
     15121     15120     15123     15122     15120     15123     15124     15125     15126
     15124     15125     15127     15124     15125     15128     15124     15129     15130
     15124     15129     15131     15124     15129     15132     15124     15133     15134
     15124     15133     15135     15124     15133     15136     15124     15137     15138
     15124     15137     15139     15124     15137     15140     15125     15124     15129
     15125     15124     15133     15125     15124     15137     15126     15125     15127
     15126     15125     15128     15127     15125     15128     15129     15124     15133
     15129     15124     15137     15130     15129     15131     15130     15129     15132
     15131     15129     15132     15133     15124     15137     15134     15133     15135
     15134     15133     15136     15135     15133     15136     15137     15140     15141
     15137     15140     15142     15137     15140     15147     15138     15137     15139
     15138     15137     15140     15139     15137     15140     15140     15147     15143
     15141     15140     15142     15141     15140     15147     15142     15140     15147
     15143     15146     15148     15144     15143     15145     15144     15143     15146
     15144     15143     15147     15145     15143     15146     15145     15143     15147
     15146     15143     15147     15146     15148     15149     15146     15148     15150
     15146     15148     15153     15148     15153     15151     15148     15153     15154
     15148     15153     15155     15149     15148     15150     15149     15148     15153
     15150     15148     15153     15151     15153     15154     15151     15153     15155
     15151     15203     15204     15151     15203     15205     15152     15151     15153
     15152     15151     15203     15153     15151     15203     15153     15155     15156
     15153     15155     15157     15153     15155     15159     15154     15153     15155
     15155     15157     15158     15155     15159     15160     15155     15159     15161
     15156     15155     15157     15156     15155     15159     15157     15155     15159
     15159     15161     15162     15159     15161     15163     15160     15159     15161
     15161     15163     15164     15161     15163     15165     15161     15163     15166
     15162     15161     15163     15163     15166     15167     15163     15166     15168
     15163     15166     15169     15164     15163     15165     15164     15163     15166
     15165     15163     15166     15166     15169     15170     15166     15169     15171
     15166     15169     15172     15167     15166     15168     15167     15166     15169
     15168     15166     15169     15169     15172     15173     15169     15172     15174
     15169     15172     15175     15170     15169     15171     15170     15169     15172
     15171     15169     15172     15172     15175     15176     15172     15175     15177
     15172     15175     15178     15173     15172     15174     15173     15172     15175
     15174     15172     15175     15175     15178     15179     15175     15178     15180
     15175     15178     15181     15176     15175     15177     15176     15175     15178
     15177     15175     15178     15178     15181     15182     15178     15181     15183
     15178     15181     15184     15179     15178     15180     15179     15178     15181
     15180     15178     15181     15181     15184     15185     15181     15184     15186
     15181     15184     15187     15182     15181     15183     15182     15181     15184
     15183     15181     15184     15184     15187     15188     15184     15187     15189
     15184     15187     15190     15185     15184     15186     15185     15184     15187
     15186     15184     15187     15187     15190     15191     15187     15190     15192
     15187     15190     15193     15188     15187     15189     15188     15187     15190
     15189     15187     15190     15190     15193     15194     15190     15193     15195
     15190     15193     15196     15191     15190     15192     15191     15190     15193
     15192     15190     15193     15193     15196     15197     15193     15196     15198
     15193     15196     15199     15194     15193     15195     15194     15193     15196
     15195     15193     15196     15196     15199     15200     15196     15199     15201
     15196     15199     15202     15197     15196     15198     15197     15196     15199
     15198     15196     15199     15200     15199     15201     15200     15199     15202
     15201     15199     15202     15203     15205     15206     15203     15205     15207
     15203     15205     15208     15204     15203     15205     15205     15208     15209
     15205     15208     15210     15205     15208     15211     15206     15205     15207
     15206     15205     15208     15207     15205     15208     15208     15211     15212
     15208     15211     15213     15208     15211     15214     15209     15208     15210
     15209     15208     15211     15210     15208     15211     15211     15214     15215
     15211     15214     15216     15211     15214     15217     15212     15211     15213
     15212     15211     15214     15213     15211     15214     15214     15217     15218
     15214     15217     15219     15214     15217     15220     15215     15214     15216
     15215     15214     15217     15216     15214     15217     15217     15220     15221
     15217     15220     15222     15217     15220     15223     15218     15217     15219
     15218     15217     15220     15219     15217     15220     15220     15223     15224
     15220     15223     15225     15220     15223     15226     15221     15220     15222
     15221     15220     15223     15222     15220     15223     15223     15226     15227
     15223     15226     15228     15224     15223     15225     15224     15223     15226
     15225     15223     15226     15226     15228     15229     15226     15228     15230
     15227     15226     15228     15228     15230     15231     15228     15230     15232
     15228     15230     15233     15229     15228     15230     15230     15233     15234
     15230     15233     15235     15230     15233     15236     15231     15230     15232
     15231     15230     15233     15232     15230     15233     15233     15236     15237
     15233     15236     15238     15233     15236     15239     15234     15233     15235
     15234     15233     15236     15235     15233     15236     15236     15239     15240
     15236     15239     15241     15236     15239     15242     15237     15236     15238
     15237     15236     15239     15238     15236     15239     15239     15242     15243
     15239     15242     15244     15239     15242     15245     15240     15239     15241
     15240     15239     15242     15241     15239     15242     15242     15245     15246
     15242     15245     15247     15242     15245     15248     15243     15242     15244
     15243     15242     15245     15244     15242     15245     15245     15248     15249
     15245     15248     15250     15245     15248     15251     15246     15245     15247
     15246     15245     15248     15247     15245     15248     15248     15251     15252
     15248     15251     15253     15248     15251     15254     15249     15248     15250
     15249     15248     15251     15250     15248     15251     15252     15251     15253
     15252     15251     15254     15253     15251     15254     15255     15256     15257
     15255     15256     15258     15255     15256     15259     15255     15260     15261
     15255     15260     15262     15255     15260     15263     15255     15264     15265
     15255     15264     15266     15255     15264     15267     15255     15268     15269
     15255     15268     15270     15255     15268     15271     15256     15255     15260
     15256     15255     15264     15256     15255     15268     15257     15256     15258
     15257     15256     15259     15258     15256     15259     15260     15255     15264
     15260     15255     15268     15261     15260     15262     15261     15260     15263
     15262     15260     15263     15264     15255     15268     15265     15264     15266
     15265     15264     15267     15266     15264     15267     15268     15271     15272
     15268     15271     15273     15268     15271     15277     15269     15268     15270
     15269     15268     15271     15270     15268     15271     15271     15277     15274
     15272     15271     15273     15272     15271     15277     15273     15271     15277
     15274     15278     15279     15275     15274     15276     15275     15274     15277
     15275     15274     15278     15276     15274     15277     15276     15274     15278
     15277     15274     15278     15278     15279     15280     15278     15279     15281
     15278     15279     15282     15279     15282     15283     15279     15282     15284
     15279     15282     15290     15280     15279     15281     15280     15279     15282
     15281     15279     15282     15282     15284     15285     15282     15290     15291
     15282     15290     15292     15282     15290     15293     15283     15282     15284
     15283     15282     15290     15284     15282     15290     15284     15285     15286
     15284     15285     15287     15285     15287     15288     15285     15287     15289
     15285     15287     15299     15286     15285     15287     15287     15299     15300
     15287     15299     15301     15287     15299     15302     15288     15287     15289
     15288     15287     15299     15289     15287     15299     15290     15293     15294
     15291     15290     15292     15291     15290     15293     15292     15290     15293
     15293     15294     15295     15293     15294     15296     15294     15296     15297
     15294     15296     15298     15294     15296     15344     15295     15294     15296
     15296     15344     15345     15296     15344     15346     15296     15344     15347
     15297     15296     15298     15297     15296     15344     15298     15296     15344
     15299     15302     15303     15299     15302     15304     15299     15302     15305
     15300     15299     15301     15300     15299     15302     15301     15299     15302
     15302     15305     15306     15302     15305     15307     15302     15305     15308
     15303     15302     15304     15303     15302     15305     15304     15302     15305
     15305     15308     15309     15305     15308     15310     15305     15308     15311
     15306     15305     15307     15306     15305     15308     15307     15305     15308
     15308     15311     15312     15308     15311     15313     15308     15311     15314
     15309     15308     15310     15309     15308     15311     15310     15308     15311
     15311     15314     15315     15311     15314     15316     15311     15314     15317
     15312     15311     15313     15312     15311     15314     15313     15311     15314
     15314     15317     15318     15314     15317     15319     15315     15314     15316
     15315     15314     15317     15316     15314     15317     15317     15319     15320
     15317     15319     15321     15318     15317     15319     15319     15321     15322
     15319     15321     15323     15319     15321     15324     15320     15319     15321
     15321     15324     15325     15321     15324     15326     15322     15321     15323
     15322     15321     15324     15323     15321     15324     15324     15326     15327
     15324     15326     15328     15325     15324     15326     15326     15328     15329
     15326     15328     15330     15326     15328     15331     15327     15326     15328
     15328     15331     15332     15328     15331     15333     15328     15331     15334
     15329     15328     15330     15329     15328     15331     15330     15328     15331
     15331     15334     15335     15331     15334     15336     15331     15334     15337
     15332     15331     15333     15332     15331     15334     15333     15331     15334
     15334     15337     15338     15334     15337     15339     15334     15337     15340
     15335     15334     15336     15335     15334     15337     15336     15334     15337
     15337     15340     15341     15337     15340     15342     15337     15340     15343
     15338     15337     15339     15338     15337     15340     15339     15337     15340
     15341     15340     15342     15341     15340     15343     15342     15340     15343
     15344     15347     15348     15344     15347     15349     15344     15347     15350
     15345     15344     15346     15345     15344     15347     15346     15344     15347
     15347     15350     15351     15347     15350     15352     15347     15350     15353
     15348     15347     15349     15348     15347     15350     15349     15347     15350
     15350     15353     15354     15350     15353     15355     15350     15353     15356
     15351     15350     15352     15351     15350     15353     15352     15350     15353
     15353     15356     15357     15353     15356     15358     15353     15356     15359
     15354     15353     15355     15354     15353     15356     15355     15353     15356
     15356     15359     15360     15356     15359     15361     15356     15359     15362
     15357     15356     15358     15357     15356     15359     15358     15356     15359
     15359     15362     15363     15359     15362     15364     15359     15362     15365
     15360     15359     15361     15360     15359     15362     15361     15359     15362
     15362     15365     15366     15362     15365     15367     15362     15365     15368
     15363     15362     15364     15363     15362     15365     15364     15362     15365
     15365     15368     15369     15365     15368     15370     15365     15368     15371
     15366     15365     15367     15366     15365     15368     15367     15365     15368
     15368     15371     15372     15368     15371     15373     15368     15371     15374
     15369     15368     15370     15369     15368     15371     15370     15368     15371
     15371     15374     15375     15371     15374     15376     15371     15374     15377
     15372     15371     15373     15372     15371     15374     15373     15371     15374
     15374     15377     15378     15374     15377     15379     15374     15377     15380
     15375     15374     15376     15375     15374     15377     15376     15374     15377
     15377     15380     15381     15377     15380     15382     15377     15380     15383
     15378     15377     15379     15378     15377     15380     15379     15377     15380
     15380     15383     15384     15380     15383     15385     15380     15383     15386
     15381     15380     15382     15381     15380     15383     15382     15380     15383
     15383     15386     15387     15383     15386     15388     15383     15386     15389
     15384     15383     15385     15384     15383     15386     15385     15383     15386
     15386     15389     15390     15386     15389     15391     15386     15389     15392
     15387     15386     15388     15387     15386     15389     15388     15386     15389
     15390     15389     15391     15390     15389     15392     15391     15389     15392
     15393     15394     15395     15393     15394     15396     15393     15394     15397
     15393     15398     15399     15393     15398     15400     15393     15398     15401
     15393     15402     15403     15393     15402     15404     15393     15402     15405
     15393     15406     15407     15393     15406     15408     15393     15406     15409
     15394     15393     15398     15394     15393     15402     15394     15393     15406
     15395     15394     15396     15395     15394     15397     15396     15394     15397
     15398     15393     15402     15398     15393     15406     15399     15398     15400
     15399     15398     15401     15400     15398     15401     15402     15393     15406
     15403     15402     15404     15403     15402     15405     15404     15402     15405
     15406     15409     15410     15406     15409     15411     15406     15409     15416
     15407     15406     15408     15407     15406     15409     15408     15406     15409
     15409     15416     15412     15410     15409     15411     15410     15409     15416
     15411     15409     15416     15412     15415     15417     15413     15412     15414
     15413     15412     15415     15413     15412     15416     15414     15412     15415
     15414     15412     15416     15415     15412     15416     15415     15417     15418
     15415     15417     15419     15415     15417     15422     15417     15422     15420
     15417     15422     15423     15417     15422     15424     15418     15417     15419
     15418     15417     15422     15419     15417     15422     15420     15422     15423
     15420     15422     15424     15420     15472     15473     15420     15472     15474
     15421     15420     15422     15421     15420     15472     15422     15420     15472
     15422     15424     15425     15422     15424     15426     15422     15424     15428
     15423     15422     15424     15424     15426     15427     15424     15428     15429
     15424     15428     15430     15425     15424     15426     15425     15424     15428
     15426     15424     15428     15428     15430     15431     15428     15430     15432
     15429     15428     15430     15430     15432     15433     15430     15432     15434
     15430     15432     15435     15431     15430     15432     15432     15435     15436
     15432     15435     15437     15432     15435     15438     15433     15432     15434
     15433     15432     15435     15434     15432     15435     15435     15438     15439
     15435     15438     15440     15435     15438     15441     15436     15435     15437
     15436     15435     15438     15437     15435     15438     15438     15441     15442
     15438     15441     15443     15438     15441     15444     15439     15438     15440
     15439     15438     15441     15440     15438     15441     15441     15444     15445
     15441     15444     15446     15441     15444     15447     15442     15441     15443
     15442     15441     15444     15443     15441     15444     15444     15447     15448
     15444     15447     15449     15444     15447     15450     15445     15444     15446
     15445     15444     15447     15446     15444     15447     15447     15450     15451
     15447     15450     15452     15447     15450     15453     15448     15447     15449
     15448     15447     15450     15449     15447     15450     15450     15453     15454
     15450     15453     15455     15450     15453     15456     15451     15450     15452
     15451     15450     15453     15452     15450     15453     15453     15456     15457
     15453     15456     15458     15453     15456     15459     15454     15453     15455
     15454     15453     15456     15455     15453     15456     15456     15459     15460
     15456     15459     15461     15456     15459     15462     15457     15456     15458
     15457     15456     15459     15458     15456     15459     15459     15462     15463
     15459     15462     15464     15459     15462     15465     15460     15459     15461
     15460     15459     15462     15461     15459     15462     15462     15465     15466
     15462     15465     15467     15462     15465     15468     15463     15462     15464
     15463     15462     15465     15464     15462     15465     15465     15468     15469
     15465     15468     15470     15465     15468     15471     15466     15465     15467
     15466     15465     15468     15467     15465     15468     15469     15468     15470
     15469     15468     15471     15470     15468     15471     15472     15474     15475
     15472     15474     15476     15472     15474     15477     15473     15472     15474
     15474     15477     15478     15474     15477     15479     15474     15477     15480
     15475     15474     15476     15475     15474     15477     15476     15474     15477
     15477     15480     15481     15477     15480     15482     15477     15480     15483
     15478     15477     15479     15478     15477     15480     15479     15477     15480
     15480     15483     15484     15480     15483     15485     15480     15483     15486
     15481     15480     15482     15481     15480     15483     15482     15480     15483
     15483     15486     15487     15483     15486     15488     15483     15486     15489
     15484     15483     15485     15484     15483     15486     15485     15483     15486
     15486     15489     15490     15486     15489     15491     15486     15489     15492
     15487     15486     15488     15487     15486     15489     15488     15486     15489
     15489     15492     15493     15489     15492     15494     15489     15492     15495
     15490     15489     15491     15490     15489     15492     15491     15489     15492
     15492     15495     15496     15492     15495     15497     15493     15492     15494
     15493     15492     15495     15494     15492     15495     15495     15497     15498
     15495     15497     15499     15496     15495     15497     15497     15499     15500
     15497     15499     15501     15497     15499     15502     15498     15497     15499
     15499     15502     15503     15499     15502     15504     15499     15502     15505
     15500     15499     15501     15500     15499     15502     15501     15499     15502
     15502     15505     15506     15502     15505     15507     15502     15505     15508
     15503     15502     15504     15503     15502     15505     15504     15502     15505
     15505     15508     15509     15505     15508     15510     15505     15508     15511
     15506     15505     15507     15506     15505     15508     15507     15505     15508
     15508     15511     15512     15508     15511     15513     15508     15511     15514
     15509     15508     15510     15509     15508     15511     15510     15508     15511
     15511     15514     15515     15511     15514     15516     15511     15514     15517
     15512     15511     15513     15512     15511     15514     15513     15511     15514
     15514     15517     15518     15514     15517     15519     15514     15517     15520
     15515     15514     15516     15515     15514     15517     15516     15514     15517
     15517     15520     15521     15517     15520     15522     15517     15520     15523
     15518     15517     15519     15518     15517     15520     15519     15517     15520
     15521     15520     15522     15521     15520     15523     15522     15520     15523
     15524     15525     15526     15524     15525     15527     15524     15525     15540
     15524     15528     15529     15524     15528     15530     15524     15528     15531
     15524     15532     15533     15524     15532     15534     15524     15532     15535
     15524     15536     15537     15524     15536     15538     15524     15536     15539
     15525     15524     15528     15525     15524     15532     15525     15524     15536
     15525     15540     15541     15525     15540     15542     15525     15540     15546
     15526     15525     15527     15526     15525     15540     15527     15525     15540
     15528     15524     15532     15528     15524     15536     15529     15528     15530
     15529     15528     15531     15530     15528     15531     15532     15524     15536
     15533     15532     15534     15533     15532     15535     15534     15532     15535
     15537     15536     15538     15537     15536     15539     15538     15536     15539
     15540     15546     15543     15541     15540     15542     15541     15540     15546
     15542     15540     15546     15543     15547     15548     15544     15543     15545
     15544     15543     15546     15544     15543     15547     15545     15543     15546
     15545     15543     15547     15546     15543     15547     15547     15548     15549
     15547     15548     15550     15547     15548     15551     15548     15551     15552
     15548     15551     15553     15548     15551     15559     15549     15548     15550
     15549     15548     15551     15550     15548     15551     15551     15553     15554
     15551     15559     15560     15551     15559     15561     15551     15559     15562
     15552     15551     15553     15552     15551     15559     15553     15551     15559
     15553     15554     15555     15553     15554     15556     15554     15556     15557
     15554     15556     15558     15554     15556     15568     15555     15554     15556
     15556     15568     15569     15556     15568     15570     15556     15568     15571
     15557     15556     15558     15557     15556     15568     15558     15556     15568
     15559     15562     15563     15560     15559     15561     15560     15559     15562
     15561     15559     15562     15562     15563     15564     15562     15563     15565
     15563     15565     15566     15563     15565     15567     15563     15565     15615
     15564     15563     15565     15565     15615     15616     15565     15615     15617
     15565     15615     15618     15566     15565     15567     15566     15565     15615
     15567     15565     15615     15568     15571     15572     15568     15571     15573
     15568     15571     15574     15569     15568     15570     15569     15568     15571
     15570     15568     15571     15571     15574     15575     15571     15574     15576
     15572     15571     15573     15572     15571     15574     15573     15571     15574
     15574     15576     15577     15574     15576     15578     15575     15574     15576
     15576     15578     15579     15576     15578     15580     15576     15578     15581
     15577     15576     15578     15578     15581     15582     15578     15581     15583
     15579     15578     15580     15579     15578     15581     15580     15578     15581
     15581     15583     15584     15581     15583     15585     15582     15581     15583
     15583     15585     15586     15583     15585     15587     15583     15585     15588
     15584     15583     15585     15585     15588     15589     15585     15588     15590
     15586     15585     15587     15586     15585     15588     15587     15585     15588
     15588     15590     15591     15588     15590     15592     15589     15588     15590
     15590     15592     15593     15590     15592     15594     15590     15592     15595
     15591     15590     15592     15592     15595     15596     15592     15595     15597
     15593     15592     15594     15593     15592     15595     15594     15592     15595
     15595     15597     15598     15595     15597     15599     15596     15595     15597
     15597     15599     15600     15597     15599     15601     15597     15599     15602
     15598     15597     15599     15599     15602     15603     15599     15602     15604
     15599     15602     15605     15600     15599     15601     15600     15599     15602
     15601     15599     15602     15602     15605     15606     15602     15605     15607
     15602     15605     15608     15603     15602     15604     15603     15602     15605
     15604     15602     15605     15605     15608     15609     15605     15608     15610
     15605     15608     15611     15606     15605     15607     15606     15605     15608
     15607     15605     15608     15608     15611     15612     15608     15611     15613
     15608     15611     15614     15609     15608     15610     15609     15608     15611
     15610     15608     15611     15612     15611     15613     15612     15611     15614
     15613     15611     15614     15615     15618     15619     15615     15618     15620
     15615     15618     15621     15616     15615     15617     15616     15615     15618
     15617     15615     15618     15618     15621     15622     15618     15621     15623
     15618     15621     15624     15619     15618     15620     15619     15618     15621
     15620     15618     15621     15621     15624     15625     15621     15624     15626
     15621     15624     15627     15622     15621     15623     15622     15621     15624
     15623     15621     15624     15624     15627     15628     15624     15627     15629
     15624     15627     15630     15625     15624     15626     15625     15624     15627
     15626     15624     15627     15627     15630     15631     15627     15630     15632
     15627     15630     15633     15628     15627     15629     15628     15627     15630
     15629     15627     15630     15630     15633     15634     15630     15633     15635
     15630     15633     15636     15631     15630     15632     15631     15630     15633
     15632     15630     15633     15633     15636     15637     15633     15636     15638
     15633     15636     15639     15634     15633     15635     15634     15633     15636
     15635     15633     15636     15636     15639     15640     15636     15639     15641
     15636     15639     15642     15637     15636     15638     15637     15636     15639
     15638     15636     15639     15639     15642     15643     15639     15642     15644
     15639     15642     15645     15640     15639     15641     15640     15639     15642
     15641     15639     15642     15642     15645     15646     15642     15645     15647
     15642     15645     15648     15643     15642     15644     15643     15642     15645
     15644     15642     15645     15645     15648     15649     15645     15648     15650
     15645     15648     15651     15646     15645     15647     15646     15645     15648
     15647     15645     15648     15648     15651     15652     15648     15651     15653
     15648     15651     15654     15649     15648     15650     15649     15648     15651
     15650     15648     15651     15651     15654     15655     15651     15654     15656
     15651     15654     15657     15652     15651     15653     15652     15651     15654
     15653     15651     15654     15654     15657     15658     15654     15657     15659
     15654     15657     15660     15655     15654     15656     15655     15654     15657
     15656     15654     15657     15657     15660     15661     15657     15660     15662
     15657     15660     15663     15658     15657     15659     15658     15657     15660
     15659     15657     15660     15661     15660     15662     15661     15660     15663
     15662     15660     15663     15664     15668     15669     15664     15668     15670
     15664     15668     15673     15665     15664     15666     15665     15664     15667
     15665     15664     15668     15666     15664     15667     15666     15664     15668
     15667     15664     15668     15668     15670     15671     15668     15670     15672
     15668     15673     15674     15668     15673     15675     15668     15673     15679
     15669     15668     15670     15669     15668     15673     15670     15668     15673
     15671     15670     15672     15673     15679     15676     15674     15673     15675
     15674     15673     15679     15675     15673     15679     15676     15680     15681
     15677     15676     15678     15677     15676     15679     15677     15676     15680
     15678     15676     15679     15678     15676     15680     15679     15676     15680
     15680     15681     15682     15680     15681     15683     15680     15681     15684
     15681     15684     15685     15681     15684     15686     15681     15684     15692
     15682     15681     15683     15682     15681     15684     15683     15681     15684
     15684     15686     15687     15684     15692     15693     15684     15692     15694
     15684     15692     15695     15685     15684     15686     15685     15684     15692
     15686     15684     15692     15686     15687     15688     15686     15687     15689
     15687     15689     15690     15687     15689     15691     15687     15689     15701
     15688     15687     15689     15689     15701     15702     15689     15701     15703
     15689     15701     15704     15690     15689     15691     15690     15689     15701
     15691     15689     15701     15692     15695     15696     15693     15692     15694
     15693     15692     15695     15694     15692     15695     15695     15696     15697
     15695     15696     15698     15696     15698     15699     15696     15698     15700
     15696     15698     15748     15697     15696     15698     15698     15748     15749
     15698     15748     15750     15698     15748     15751     15699     15698     15700
     15699     15698     15748     15700     15698     15748     15701     15704     15705
     15701     15704     15706     15701     15704     15707     15702     15701     15703
     15702     15701     15704     15703     15701     15704     15704     15707     15708
     15704     15707     15709     15705     15704     15706     15705     15704     15707
     15706     15704     15707     15707     15709     15710     15707     15709     15711
     15708     15707     15709     15709     15711     15712     15709     15711     15713
     15709     15711     15714     15710     15709     15711     15711     15714     15715
     15711     15714     15716     15712     15711     15713     15712     15711     15714
     15713     15711     15714     15714     15716     15717     15714     15716     15718
     15715     15714     15716     15716     15718     15719     15716     15718     15720
     15716     15718     15721     15717     15716     15718     15718     15721     15722
     15718     15721     15723     15719     15718     15720     15719     15718     15721
     15720     15718     15721     15721     15723     15724     15721     15723     15725
     15722     15721     15723     15723     15725     15726     15723     15725     15727
     15723     15725     15728     15724     15723     15725     15725     15728     15729
     15725     15728     15730     15726     15725     15727     15726     15725     15728
     15727     15725     15728     15728     15730     15731     15728     15730     15732
     15729     15728     15730     15730     15732     15733     15730     15732     15734
     15730     15732     15735     15731     15730     15732     15732     15735     15736
     15732     15735     15737     15732     15735     15738     15733     15732     15734
     15733     15732     15735     15734     15732     15735     15735     15738     15739
     15735     15738     15740     15735     15738     15741     15736     15735     15737
     15736     15735     15738     15737     15735     15738     15738     15741     15742
     15738     15741     15743     15738     15741     15744     15739     15738     15740
     15739     15738     15741     15740     15738     15741     15741     15744     15745
     15741     15744     15746     15741     15744     15747     15742     15741     15743
     15742     15741     15744     15743     15741     15744     15745     15744     15746
     15745     15744     15747     15746     15744     15747     15748     15751     15752
     15748     15751     15753     15748     15751     15754     15749     15748     15750
     15749     15748     15751     15750     15748     15751     15751     15754     15755
     15751     15754     15756     15751     15754     15757     15752     15751     15753
     15752     15751     15754     15753     15751     15754     15754     15757     15758
     15754     15757     15759     15754     15757     15760     15755     15754     15756
     15755     15754     15757     15756     15754     15757     15757     15760     15761
     15757     15760     15762     15757     15760     15763     15758     15757     15759
     15758     15757     15760     15759     15757     15760     15760     15763     15764
     15760     15763     15765     15760     15763     15766     15761     15760     15762
     15761     15760     15763     15762     15760     15763     15763     15766     15767
     15763     15766     15768     15763     15766     15769     15764     15763     15765
     15764     15763     15766     15765     15763     15766     15766     15769     15770
     15766     15769     15771     15766     15769     15772     15767     15766     15768
     15767     15766     15769     15768     15766     15769     15769     15772     15773
     15769     15772     15774     15769     15772     15775     15770     15769     15771
     15770     15769     15772     15771     15769     15772     15772     15775     15776
     15772     15775     15777     15772     15775     15778     15773     15772     15774
     15773     15772     15775     15774     15772     15775     15775     15778     15779
     15775     15778     15780     15775     15778     15781     15776     15775     15777
     15776     15775     15778     15777     15775     15778     15778     15781     15782
     15778     15781     15783     15778     15781     15784     15779     15778     15780
     15779     15778     15781     15780     15778     15781     15781     15784     15785
     15781     15784     15786     15781     15784     15787     15782     15781     15783
     15782     15781     15784     15783     15781     15784     15784     15787     15788
     15784     15787     15789     15784     15787     15790     15785     15784     15786
     15785     15784     15787     15786     15784     15787     15787     15790     15791
     15787     15790     15792     15787     15790     15793     15788     15787     15789
     15788     15787     15790     15789     15787     15790     15790     15793     15794
     15790     15793     15795     15790     15793     15796     15791     15790     15792
     15791     15790     15793     15792     15790     15793     15794     15793     15795
     15794     15793     15796     15795     15793     15796     15797     15799     15800
     15797     15801     15802     15797     15801     15803     15797     15801     15804
     15797     15843     15840     15797     15843     15844     15797     15843     15845
     15798     15797     15799     15798     15797     15801     15798     15797     15843
     15799     15797     15801     15799     15797     15843     15801     15797     15843
     15801     15804     15805     15801     15804     15835     15802     15801     15803
     15802     15801     15804     15803     15801     15804     15804     15805     15806
     15804     15805     15807     15804     15835     15833     15804     15835     15836
     15804     15835     15840     15805     15804     15835     15805     15807     15808
     15805     15807     15809     15805     15807     15810     15806     15805     15807
     15807     15810     15811     15807     15810     15812     15807     15810     15833
     15808     15807     15809     15808     15807     15810     15809     15807     15810
     15810     15812     15813     15810     15812     15814     15810     15812     15822
     15810     15833     15830     15810     15833     15834     15810     15833     15835
     15811     15810     15812     15811     15810     15833     15812     15810     15833
     15812     15814     15815     15812     15814     15816     15812     15814     15817
     15812     15822     15820     15812     15822     15823     15812     15822     15827
     15813     15812     15814     15813     15812     15822     15814     15812     15822
     15814     15817     15818     15814     15817     15819     15814     15817     15820
     15815     15814     15816     15815     15814     15817     15816     15814     15817
     15817     15820     15821     15817     15820     15822     15817     15820     15846
     15818     15817     15819     15818     15817     15820     15819     15817     15820
     15820     15822     15823     15820     15822     15827     15820     15846     15847
     15820     15846     15848     15820     15846     15852     15821     15820     15822
     15821     15820     15846     15822     15820     15846     15822     15823     15824
     15822     15823     15825     15822     15823     15826     15822     15827     15828
     15822     15827     15829     15822     15827     15830     15823     15822     15827
     15824     15823     15825     15824     15823     15826     15825     15823     15826
     15827     15830     15831     15827     15830     15832     15827     15830     15833
     15828     15827     15829     15828     15827     15830     15829     15827     15830
     15830     15833     15834     15830     15833     15835     15831     15830     15832
     15831     15830     15833     15832     15830     15833     15833     15835     15836
     15833     15835     15840     15834     15833     15835     15835     15836     15837
     15835     15836     15838     15835     15836     15839     15835     15840     15841
     15835     15840     15842     15835     15840     15843     15836     15835     15840
     15837     15836     15838     15837     15836     15839     15838     15836     15839
     15840     15843     15844     15840     15843     15845     15841     15840     15842
     15841     15840     15843     15842     15840     15843     15844     15843     15845
     15846     15848     15849     15846     15848     15850     15846     15848     15851
     15846     15852     15853     15846     15852     15854     15846     15852     15855
     15847     15846     15848     15847     15846     15852     15848     15846     15852
     15849     15848     15850     15849     15848     15851     15850     15848     15851
     15852     15855     15856     15852     15855     15857     15852     15855     15858
     15853     15852     15854     15853     15852     15855     15854     15852     15855
     15855     15858     15859     15855     15858     15860     15855     15858     15861
     15856     15855     15857     15856     15855     15858     15857     15855     15858
     15858     15861     15862     15858     15861     15863     15858     15861     15867
     15859     15858     15860     15859     15858     15861     15860     15858     15861
     15861     15863     15864     15861     15863     15865     15861     15863     15866
     15861     15867     15868     15861     15867     15869     15861     15867     15870
     15862     15861     15863     15862     15861     15867     15863     15861     15867
     15864     15863     15865     15864     15863     15866     15865     15863     15866
     15868     15867     15869     15868     15867     15870     15869     15867     15870
     15871     15875     15876     15871     15875     15877     15871     15875     15878
     15872     15871     15873     15872     15871     15874     15872     15871     15875
     15873     15871     15874     15873     15871     15875     15874     15871     15875
     15875     15878     15879     15875     15878     15880     15875     15878     15884
     15876     15875     15877     15876     15875     15878     15877     15875     15878
     15878     15884     15881     15879     15878     15880     15879     15878     15884
     15880     15878     15884     15881     15885     15886     15882     15881     15883
     15882     15881     15884     15882     15881     15885     15883     15881     15884
     15883     15881     15885     15884     15881     15885     15885     15886     15887
     15885     15886     15888     15885     15886     15889     15886     15889     15890
     15886     15889     15891     15886     15889     15897     15887     15886     15888
     15887     15886     15889     15888     15886     15889     15889     15891     15892
     15889     15897     15898     15889     15897     15899     15889     15897     15900
     15890     15889     15891     15890     15889     15897     15891     15889     15897
     15891     15892     15893     15891     15892     15894     15892     15894     15895
     15892     15894     15896     15892     15894     15906     15893     15892     15894
     15894     15906     15907     15894     15906     15908     15894     15906     15909
     15895     15894     15896     15895     15894     15906     15896     15894     15906
     15897     15900     15901     15898     15897     15899     15898     15897     15900
     15899     15897     15900     15900     15901     15902     15900     15901     15903
     15901     15903     15904     15901     15903     15905     15901     15903     15953
     15902     15901     15903     15903     15953     15954     15903     15953     15955
     15903     15953     15956     15904     15903     15905     15904     15903     15953
     15905     15903     15953     15906     15909     15910     15906     15909     15911
     15906     15909     15912     15907     15906     15908     15907     15906     15909
     15908     15906     15909     15909     15912     15913     15909     15912     15914
     15909     15912     15915     15910     15909     15911     15910     15909     15912
     15911     15909     15912     15912     15915     15916     15912     15915     15917
     15912     15915     15918     15913     15912     15914     15913     15912     15915
     15914     15912     15915     15915     15918     15919     15915     15918     15920
     15915     15918     15921     15916     15915     15917     15916     15915     15918
     15917     15915     15918     15918     15921     15922     15918     15921     15923
     15918     15921     15924     15919     15918     15920     15919     15918     15921
     15920     15918     15921     15921     15924     15925     15921     15924     15926
     15922     15921     15923     15922     15921     15924     15923     15921     15924
     15924     15926     15927     15924     15926     15928     15925     15924     15926
     15926     15928     15929     15926     15928     15930     15926     15928     15931
     15927     15926     15928     15928     15931     15932     15928     15931     15933
     15928     15931     15934     15929     15928     15930     15929     15928     15931
     15930     15928     15931     15931     15934     15935     15931     15934     15936
     15931     15934     15937     15932     15931     15933     15932     15931     15934
     15933     15931     15934     15934     15937     15938     15934     15937     15939
     15934     15937     15940     15935     15934     15936     15935     15934     15937
     15936     15934     15937     15937     15940     15941     15937     15940     15942
     15937     15940     15943     15938     15937     15939     15938     15937     15940
     15939     15937     15940     15940     15943     15944     15940     15943     15945
     15940     15943     15946     15941     15940     15942     15941     15940     15943
     15942     15940     15943     15943     15946     15947     15943     15946     15948
     15943     15946     15949     15944     15943     15945     15944     15943     15946
     15945     15943     15946     15946     15949     15950     15946     15949     15951
     15946     15949     15952     15947     15946     15948     15947     15946     15949
     15948     15946     15949     15950     15949     15951     15950     15949     15952
     15951     15949     15952     15953     15956     15957     15953     15956     15958
     15953     15956     15959     15954     15953     15955     15954     15953     15956
     15955     15953     15956     15956     15959     15960     15956     15959     15961
     15956     15959     15962     15957     15956     15958     15957     15956     15959
     15958     15956     15959     15959     15962     15963     15959     15962     15964
     15959     15962     15965     15960     15959     15961     15960     15959     15962
     15961     15959     15962     15962     15965     15966     15962     15965     15967
     15962     15965     15968     15963     15962     15964     15963     15962     15965
     15964     15962     15965     15965     15968     15969     15965     15968     15970
     15965     15968     15971     15966     15965     15967     15966     15965     15968
     15967     15965     15968     15968     15971     15972     15968     15971     15973
     15968     15971     15974     15969     15968     15970     15969     15968     15971
     15970     15968     15971     15971     15974     15975     15971     15974     15976
     15971     15974     15977     15972     15971     15973     15972     15971     15974
     15973     15971     15974     15974     15977     15978     15974     15977     15979
     15974     15977     15980     15975     15974     15976     15975     15974     15977
     15976     15974     15977     15977     15980     15981     15977     15980     15982
     15977     15980     15983     15978     15977     15979     15978     15977     15980
     15979     15977     15980     15980     15983     15984     15980     15983     15985
     15980     15983     15986     15981     15980     15982     15981     15980     15983
     15982     15980     15983     15983     15986     15987     15983     15986     15988
     15983     15986     15989     15984     15983     15985     15984     15983     15986
     15985     15983     15986     15986     15989     15990     15986     15989     15991
     15986     15989     15992     15987     15986     15988     15987     15986     15989
     15988     15986     15989     15989     15992     15993     15989     15992     15994
     15989     15992     15995     15990     15989     15991     15990     15989     15992
     15991     15989     15992     15992     15995     15996     15992     15995     15997
     15992     15995     15998     15993     15992     15994     15993     15992     15995
     15994     15992     15995     15995     15998     15999     15995     15998     16000
     15995     15998     16001     15996     15995     15997     15996     15995     15998
     15997     15995     15998     15999     15998     16000     15999     15998     16001
     16000     15998     16001     16002     16004     16005     16002     16006     16007
     16002     16006     16008     16002     16006     16009     16002     16048     16045
     16002     16048     16049     16002     16048     16050     16003     16002     16004
     16003     16002     16006     16003     16002     16048     16004     16002     16006
     16004     16002     16048     16006     16002     16048     16006     16009     16010
     16006     16009     16040     16007     16006     16008     16007     16006     16009
     16008     16006     16009     16009     16010     16011     16009     16010     16012
     16009     16040     16038     16009     16040     16041     16009     16040     16045
     16010     16009     16040     16010     16012     16013     16010     16012     16014
     16010     16012     16015     16011     16010     16012     16012     16015     16016
     16012     16015     16017     16012     16015     16038     16013     16012     16014
     16013     16012     16015     16014     16012     16015     16015     16017     16018
     16015     16017     16019     16015     16017     16027     16015     16038     16035
     16015     16038     16039     16015     16038     16040     16016     16015     16017
     16016     16015     16038     16017     16015     16038     16017     16019     16020
     16017     16019     16021     16017     16019     16022     16017     16027     16025
     16017     16027     16028     16017     16027     16032     16018     16017     16019
     16018     16017     16027     16019     16017     16027     16019     16022     16023
     16019     16022     16024     16019     16022     16025     16020     16019     16021
     16020     16019     16022     16021     16019     16022     16022     16025     16026
     16022     16025     16027     16022     16025     16051     16023     16022     16024
     16023     16022     16025     16024     16022     16025     16025     16027     16028
     16025     16027     16032     16025     16051     16052     16025     16051     16053
     16025     16051     16057     16026     16025     16027     16026     16025     16051
     16027     16025     16051     16027     16028     16029     16027     16028     16030
     16027     16028     16031     16027     16032     16033     16027     16032     16034
     16027     16032     16035     16028     16027     16032     16029     16028     16030
     16029     16028     16031     16030     16028     16031     16032     16035     16036
     16032     16035     16037     16032     16035     16038     16033     16032     16034
     16033     16032     16035     16034     16032     16035     16035     16038     16039
     16035     16038     16040     16036     16035     16037     16036     16035     16038
     16037     16035     16038     16038     16040     16041     16038     16040     16045
     16039     16038     16040     16040     16041     16042     16040     16041     16043
     16040     16041     16044     16040     16045     16046     16040     16045     16047
     16040     16045     16048     16041     16040     16045     16042     16041     16043
     16042     16041     16044     16043     16041     16044     16045     16048     16049
     16045     16048     16050     16046     16045     16047     16046     16045     16048
     16047     16045     16048     16049     16048     16050     16051     16053     16054
     16051     16053     16055     16051     16053     16056     16051     16057     16058
     16051     16057     16059     16051     16057     16060     16052     16051     16053
     16052     16051     16057     16053     16051     16057     16054     16053     16055
     16054     16053     16056     16055     16053     16056     16057     16060     16061
     16057     16060     16062     16057     16060     16063     16058     16057     16059
     16058     16057     16060     16059     16057     16060     16060     16063     16064
     16060     16063     16065     16060     16063     16066     16061     16060     16062
     16061     16060     16063     16062     16060     16063     16063     16066     16067
     16063     16066     16068     16063     16066     16072     16064     16063     16065
     16064     16063     16066     16065     16063     16066     16066     16068     16069
     16066     16068     16070     16066     16068     16071     16066     16072     16073
     16066     16072     16074     16066     16072     16075     16067     16066     16068
     16067     16066     16072     16068     16066     16072     16069     16068     16070
     16069     16068     16071     16070     16068     16071     16073     16072     16074
     16073     16072     16075     16074     16072     16075     16076     16077     16078
     16076     16077     16079     16076     16077     16092     16076     16080     16081
     16076     16080     16082     16076     16080     16083     16076     16084     16085
     16076     16084     16086     16076     16084     16087     16076     16088     16089
     16076     16088     16090     16076     16088     16091     16077     16076     16080
     16077     16076     16084     16077     16076     16088     16077     16092     16093
     16077     16092     16094     16077     16092     16098     16078     16077     16079
     16078     16077     16092     16079     16077     16092     16080     16076     16084
     16080     16076     16088     16081     16080     16082     16081     16080     16083
     16082     16080     16083     16084     16076     16088     16085     16084     16086
     16085     16084     16087     16086     16084     16087     16089     16088     16090
     16089     16088     16091     16090     16088     16091     16092     16098     16095
     16093     16092     16094     16093     16092     16098     16094     16092     16098
     16095     16099     16100     16096     16095     16097     16096     16095     16098
     16096     16095     16099     16097     16095     16098     16097     16095     16099
     16098     16095     16099     16099     16100     16101     16099     16100     16102
     16099     16100     16103     16100     16103     16104     16100     16103     16105
     16100     16103     16111     16101     16100     16102     16101     16100     16103
     16102     16100     16103     16103     16105     16106     16103     16111     16112
     16103     16111     16113     16103     16111     16114     16104     16103     16105
     16104     16103     16111     16105     16103     16111     16105     16106     16107
     16105     16106     16108     16106     16108     16109     16106     16108     16110
     16106     16108     16120     16107     16106     16108     16108     16120     16121
     16108     16120     16122     16108     16120     16123     16109     16108     16110
     16109     16108     16120     16110     16108     16120     16111     16114     16115
     16112     16111     16113     16112     16111     16114     16113     16111     16114
     16114     16115     16116     16114     16115     16117     16115     16117     16118
     16115     16117     16119     16115     16117     16167     16116     16115     16117
     16117     16167     16168     16117     16167     16169     16117     16167     16170
     16118     16117     16119     16118     16117     16167     16119     16117     16167
     16120     16123     16124     16120     16123     16125     16120     16123     16126
     16121     16120     16122     16121     16120     16123     16122     16120     16123
     16123     16126     16127     16123     16126     16128     16124     16123     16125
     16124     16123     16126     16125     16123     16126     16126     16128     16129
     16126     16128     16130     16127     16126     16128     16128     16130     16131
     16128     16130     16132     16128     16130     16133     16129     16128     16130
     16130     16133     16134     16130     16133     16135     16131     16130     16132
     16131     16130     16133     16132     16130     16133     16133     16135     16136
     16133     16135     16137     16134     16133     16135     16135     16137     16138
     16135     16137     16139     16135     16137     16140     16136     16135     16137
     16137     16140     16141     16137     16140     16142     16138     16137     16139
     16138     16137     16140     16139     16137     16140     16140     16142     16143
     16140     16142     16144     16141     16140     16142     16142     16144     16145
     16142     16144     16146     16142     16144     16147     16143     16142     16144
     16144     16147     16148     16144     16147     16149     16145     16144     16146
     16145     16144     16147     16146     16144     16147     16147     16149     16150
     16147     16149     16151     16148     16147     16149     16149     16151     16152
     16149     16151     16153     16149     16151     16154     16150     16149     16151
     16151     16154     16155     16151     16154     16156     16151     16154     16157
     16152     16151     16153     16152     16151     16154     16153     16151     16154
     16154     16157     16158     16154     16157     16159     16154     16157     16160
     16155     16154     16156     16155     16154     16157     16156     16154     16157
     16157     16160     16161     16157     16160     16162     16157     16160     16163
     16158     16157     16159     16158     16157     16160     16159     16157     16160
     16160     16163     16164     16160     16163     16165     16160     16163     16166
     16161     16160     16162     16161     16160     16163     16162     16160     16163
     16164     16163     16165     16164     16163     16166     16165     16163     16166
     16167     16170     16171     16167     16170     16172     16167     16170     16173
     16168     16167     16169     16168     16167     16170     16169     16167     16170
     16170     16173     16174     16170     16173     16175     16170     16173     16176
     16171     16170     16172     16171     16170     16173     16172     16170     16173
     16173     16176     16177     16173     16176     16178     16173     16176     16179
     16174     16173     16175     16174     16173     16176     16175     16173     16176
     16176     16179     16180     16176     16179     16181     16176     16179     16182
     16177     16176     16178     16177     16176     16179     16178     16176     16179
     16179     16182     16183     16179     16182     16184     16179     16182     16185
     16180     16179     16181     16180     16179     16182     16181     16179     16182
     16182     16185     16186     16182     16185     16187     16182     16185     16188
     16183     16182     16184     16183     16182     16185     16184     16182     16185
     16185     16188     16189     16185     16188     16190     16185     16188     16191
     16186     16185     16187     16186     16185     16188     16187     16185     16188
     16188     16191     16192     16188     16191     16193     16188     16191     16194
     16189     16188     16190     16189     16188     16191     16190     16188     16191
     16191     16194     16195     16191     16194     16196     16191     16194     16197
     16192     16191     16193     16192     16191     16194     16193     16191     16194
     16194     16197     16198     16194     16197     16199     16194     16197     16200
     16195     16194     16196     16195     16194     16197     16196     16194     16197
     16197     16200     16201     16197     16200     16202     16197     16200     16203
     16198     16197     16199     16198     16197     16200     16199     16197     16200
     16200     16203     16204     16200     16203     16205     16200     16203     16206
     16201     16200     16202     16201     16200     16203     16202     16200     16203
     16203     16206     16207     16203     16206     16208     16203     16206     16209
     16204     16203     16205     16204     16203     16206     16205     16203     16206
     16206     16209     16210     16206     16209     16211     16206     16209     16212
     16207     16206     16208     16207     16206     16209     16208     16206     16209
     16209     16212     16213     16209     16212     16214     16209     16212     16215
     16210     16209     16211     16210     16209     16212     16211     16209     16212
     16213     16212     16214     16213     16212     16215     16214     16212     16215
     16216     16220     16221     16216     16220     16222     16216     16220     16225
     16217     16216     16218     16217     16216     16219     16217     16216     16220
     16218     16216     16219     16218     16216     16220     16219     16216     16220
     16220     16222     16223     16220     16222     16224     16220     16225     16226
     16220     16225     16227     16220     16225     16231     16221     16220     16222
     16221     16220     16225     16222     16220     16225     16223     16222     16224
     16225     16231     16228     16226     16225     16227     16226     16225     16231
     16227     16225     16231     16228     16232     16233     16229     16228     16230
     16229     16228     16231     16229     16228     16232     16230     16228     16231
     16230     16228     16232     16231     16228     16232     16232     16233     16234
     16232     16233     16235     16232     16233     16236     16233     16236     16237
     16233     16236     16238     16233     16236     16244     16234     16233     16235
     16234     16233     16236     16235     16233     16236     16236     16238     16239
     16236     16244     16245     16236     16244     16246     16236     16244     16247
     16237     16236     16238     16237     16236     16244     16238     16236     16244
     16238     16239     16240     16238     16239     16241     16239     16241     16242
     16239     16241     16243     16239     16241     16253     16240     16239     16241
     16241     16253     16254     16241     16253     16255     16241     16253     16256
     16242     16241     16243     16242     16241     16253     16243     16241     16253
     16244     16247     16248     16245     16244     16246     16245     16244     16247
     16246     16244     16247     16247     16248     16249     16247     16248     16250
     16248     16250     16251     16248     16250     16252     16248     16250     16300
     16249     16248     16250     16250     16300     16301     16250     16300     16302
     16250     16300     16303     16251     16250     16252     16251     16250     16300
     16252     16250     16300     16253     16256     16257     16253     16256     16258
     16253     16256     16259     16254     16253     16255     16254     16253     16256
     16255     16253     16256     16256     16259     16260     16256     16259     16261
     16257     16256     16258     16257     16256     16259     16258     16256     16259
     16259     16261     16262     16259     16261     16263     16260     16259     16261
     16261     16263     16264     16261     16263     16265     16261     16263     16266
     16262     16261     16263     16263     16266     16267     16263     16266     16268
     16264     16263     16265     16264     16263     16266     16265     16263     16266
     16266     16268     16269     16266     16268     16270     16267     16266     16268
     16268     16270     16271     16268     16270     16272     16268     16270     16273
     16269     16268     16270     16270     16273     16274     16270     16273     16275
     16271     16270     16272     16271     16270     16273     16272     16270     16273
     16273     16275     16276     16273     16275     16277     16274     16273     16275
     16275     16277     16278     16275     16277     16279     16275     16277     16280
     16276     16275     16277     16277     16280     16281     16277     16280     16282
     16278     16277     16279     16278     16277     16280     16279     16277     16280
     16280     16282     16283     16280     16282     16284     16281     16280     16282
     16282     16284     16285     16282     16284     16286     16282     16284     16287
     16283     16282     16284     16284     16287     16288     16284     16287     16289
     16284     16287     16290     16285     16284     16286     16285     16284     16287
     16286     16284     16287     16287     16290     16291     16287     16290     16292
     16287     16290     16293     16288     16287     16289     16288     16287     16290
     16289     16287     16290     16290     16293     16294     16290     16293     16295
     16290     16293     16296     16291     16290     16292     16291     16290     16293
     16292     16290     16293     16293     16296     16297     16293     16296     16298
     16293     16296     16299     16294     16293     16295     16294     16293     16296
     16295     16293     16296     16297     16296     16298     16297     16296     16299
     16298     16296     16299     16300     16303     16304     16300     16303     16305
     16300     16303     16306     16301     16300     16302     16301     16300     16303
     16302     16300     16303     16303     16306     16307     16303     16306     16308
     16303     16306     16309     16304     16303     16305     16304     16303     16306
     16305     16303     16306     16306     16309     16310     16306     16309     16311
     16306     16309     16312     16307     16306     16308     16307     16306     16309
     16308     16306     16309     16309     16312     16313     16309     16312     16314
     16309     16312     16315     16310     16309     16311     16310     16309     16312
     16311     16309     16312     16312     16315     16316     16312     16315     16317
     16312     16315     16318     16313     16312     16314     16313     16312     16315
     16314     16312     16315     16315     16318     16319     16315     16318     16320
     16315     16318     16321     16316     16315     16317     16316     16315     16318
     16317     16315     16318     16318     16321     16322     16318     16321     16323
     16318     16321     16324     16319     16318     16320     16319     16318     16321
     16320     16318     16321     16321     16324     16325     16321     16324     16326
     16321     16324     16327     16322     16321     16323     16322     16321     16324
     16323     16321     16324     16324     16327     16328     16324     16327     16329
     16324     16327     16330     16325     16324     16326     16325     16324     16327
     16326     16324     16327     16327     16330     16331     16327     16330     16332
     16327     16330     16333     16328     16327     16329     16328     16327     16330
     16329     16327     16330     16330     16333     16334     16330     16333     16335
     16330     16333     16336     16331     16330     16332     16331     16330     16333
     16332     16330     16333     16333     16336     16337     16333     16336     16338
     16333     16336     16339     16334     16333     16335     16334     16333     16336
     16335     16333     16336     16336     16339     16340     16336     16339     16341
     16336     16339     16342     16337     16336     16338     16337     16336     16339
     16338     16336     16339     16339     16342     16343     16339     16342     16344
     16339     16342     16345     16340     16339     16341     16340     16339     16342
     16341     16339     16342     16342     16345     16346     16342     16345     16347
     16342     16345     16348     16343     16342     16344     16343     16342     16345
     16344     16342     16345     16346     16345     16347     16346     16345     16348
     16347     16345     16348     16349     16350     16351     16349     16350     16352
     16349     16350     16353     16349     16354     16355     16349     16354     16356
     16349     16354     16357     16349     16358     16359     16349     16358     16360
     16349     16358     16361     16349     16362     16363     16349     16362     16364
     16349     16362     16365     16350     16349     16354     16350     16349     16358
     16350     16349     16362     16351     16350     16352     16351     16350     16353
     16352     16350     16353     16354     16349     16358     16354     16349     16362
     16355     16354     16356     16355     16354     16357     16356     16354     16357
     16358     16349     16362     16359     16358     16360     16359     16358     16361
     16360     16358     16361     16362     16365     16366     16362     16365     16367
     16362     16365     16371     16363     16362     16364     16363     16362     16365
     16364     16362     16365     16365     16371     16368     16366     16365     16367
     16366     16365     16371     16367     16365     16371     16368     16372     16373
     16369     16368     16370     16369     16368     16371     16369     16368     16372
     16370     16368     16371     16370     16368     16372     16371     16368     16372
     16372     16373     16374     16372     16373     16375     16372     16373     16376
     16373     16376     16377     16373     16376     16378     16373     16376     16384
     16374     16373     16375     16374     16373     16376     16375     16373     16376
     16376     16378     16379     16376     16384     16385     16376     16384     16386
     16376     16384     16387     16377     16376     16378     16377     16376     16384
     16378     16376     16384     16378     16379     16380     16378     16379     16381
     16379     16381     16382     16379     16381     16383     16379     16381     16393
     16380     16379     16381     16381     16393     16394     16381     16393     16395
     16381     16393     16396     16382     16381     16383     16382     16381     16393
     16383     16381     16393     16384     16387     16388     16385     16384     16386
     16385     16384     16387     16386     16384     16387     16387     16388     16389
     16387     16388     16390     16388     16390     16391     16388     16390     16392
     16388     16390     16438     16389     16388     16390     16390     16438     16439
     16390     16438     16440     16390     16438     16441     16391     16390     16392
     16391     16390     16438     16392     16390     16438     16393     16396     16397
     16393     16396     16398     16393     16396     16399     16394     16393     16395
     16394     16393     16396     16395     16393     16396     16396     16399     16400
     16396     16399     16401     16396     16399     16402     16397     16396     16398
     16397     16396     16399     16398     16396     16399     16399     16402     16403
     16399     16402     16404     16399     16402     16405     16400     16399     16401
     16400     16399     16402     16401     16399     16402     16402     16405     16406
     16402     16405     16407     16402     16405     16408     16403     16402     16404
     16403     16402     16405     16404     16402     16405     16405     16408     16409
     16405     16408     16410     16405     16408     16411     16406     16405     16407
     16406     16405     16408     16407     16405     16408     16408     16411     16412
     16408     16411     16413     16409     16408     16410     16409     16408     16411
     16410     16408     16411     16411     16413     16414     16411     16413     16415
     16412     16411     16413     16413     16415     16416     16413     16415     16417
     16413     16415     16418     16414     16413     16415     16415     16418     16419
     16415     16418     16420     16416     16415     16417     16416     16415     16418
     16417     16415     16418     16418     16420     16421     16418     16420     16422
     16419     16418     16420     16420     16422     16423     16420     16422     16424
     16420     16422     16425     16421     16420     16422     16422     16425     16426
     16422     16425     16427     16422     16425     16428     16423     16422     16424
     16423     16422     16425     16424     16422     16425     16425     16428     16429
     16425     16428     16430     16425     16428     16431     16426     16425     16427
     16426     16425     16428     16427     16425     16428     16428     16431     16432
     16428     16431     16433     16428     16431     16434     16429     16428     16430
     16429     16428     16431     16430     16428     16431     16431     16434     16435
     16431     16434     16436     16431     16434     16437     16432     16431     16433
     16432     16431     16434     16433     16431     16434     16435     16434     16436
     16435     16434     16437     16436     16434     16437     16438     16441     16442
     16438     16441     16443     16438     16441     16444     16439     16438     16440
     16439     16438     16441     16440     16438     16441     16441     16444     16445
     16441     16444     16446     16441     16444     16447     16442     16441     16443
     16442     16441     16444     16443     16441     16444     16444     16447     16448
     16444     16447     16449     16444     16447     16450     16445     16444     16446
     16445     16444     16447     16446     16444     16447     16447     16450     16451
     16447     16450     16452     16447     16450     16453     16448     16447     16449
     16448     16447     16450     16449     16447     16450     16450     16453     16454
     16450     16453     16455     16450     16453     16456     16451     16450     16452
     16451     16450     16453     16452     16450     16453     16453     16456     16457
     16453     16456     16458     16453     16456     16459     16454     16453     16455
     16454     16453     16456     16455     16453     16456     16456     16459     16460
     16456     16459     16461     16456     16459     16462     16457     16456     16458
     16457     16456     16459     16458     16456     16459     16459     16462     16463
     16459     16462     16464     16459     16462     16465     16460     16459     16461
     16460     16459     16462     16461     16459     16462     16462     16465     16466
     16462     16465     16467     16462     16465     16468     16463     16462     16464
     16463     16462     16465     16464     16462     16465     16465     16468     16469
     16465     16468     16470     16465     16468     16471     16466     16465     16467
     16466     16465     16468     16467     16465     16468     16468     16471     16472
     16468     16471     16473     16468     16471     16474     16469     16468     16470
     16469     16468     16471     16470     16468     16471     16471     16474     16475
     16471     16474     16476     16471     16474     16477     16472     16471     16473
     16472     16471     16474     16473     16471     16474     16474     16477     16478
     16474     16477     16479     16474     16477     16480     16475     16474     16476
     16475     16474     16477     16476     16474     16477     16477     16480     16481
     16477     16480     16482     16477     16480     16483     16478     16477     16479
     16478     16477     16480     16479     16477     16480     16480     16483     16484
     16480     16483     16485     16480     16483     16486     16481     16480     16482
     16481     16480     16483     16482     16480     16483     16484     16483     16485
     16484     16483     16486     16485     16483     16486     16487     16489     16490
     16487     16491     16492     16487     16491     16493     16487     16491     16494
     16487     16533     16530     16487     16533     16534     16487     16533     16535
     16488     16487     16489     16488     16487     16491     16488     16487     16533
     16489     16487     16491     16489     16487     16533     16491     16487     16533
     16491     16494     16495     16491     16494     16525     16492     16491     16493
     16492     16491     16494     16493     16491     16494     16494     16495     16496
     16494     16495     16497     16494     16525     16523     16494     16525     16526
     16494     16525     16530     16495     16494     16525     16495     16497     16498
     16495     16497     16499     16495     16497     16500     16496     16495     16497
     16497     16500     16501     16497     16500     16502     16497     16500     16523
     16498     16497     16499     16498     16497     16500     16499     16497     16500
     16500     16502     16503     16500     16502     16504     16500     16502     16512
     16500     16523     16520     16500     16523     16524     16500     16523     16525
     16501     16500     16502     16501     16500     16523     16502     16500     16523
     16502     16504     16505     16502     16504     16506     16502     16504     16507
     16502     16512     16510     16502     16512     16513     16502     16512     16517
     16503     16502     16504     16503     16502     16512     16504     16502     16512
     16504     16507     16508     16504     16507     16509     16504     16507     16510
     16505     16504     16506     16505     16504     16507     16506     16504     16507
     16507     16510     16511     16507     16510     16512     16507     16510     16536
     16508     16507     16509     16508     16507     16510     16509     16507     16510
     16510     16512     16513     16510     16512     16517     16510     16536     16537
     16510     16536     16538     16510     16536     16542     16511     16510     16512
     16511     16510     16536     16512     16510     16536     16512     16513     16514
     16512     16513     16515     16512     16513     16516     16512     16517     16518
     16512     16517     16519     16512     16517     16520     16513     16512     16517
     16514     16513     16515     16514     16513     16516     16515     16513     16516
     16517     16520     16521     16517     16520     16522     16517     16520     16523
     16518     16517     16519     16518     16517     16520     16519     16517     16520
     16520     16523     16524     16520     16523     16525     16521     16520     16522
     16521     16520     16523     16522     16520     16523     16523     16525     16526
     16523     16525     16530     16524     16523     16525     16525     16526     16527
     16525     16526     16528     16525     16526     16529     16525     16530     16531
     16525     16530     16532     16525     16530     16533     16526     16525     16530
     16527     16526     16528     16527     16526     16529     16528     16526     16529
     16530     16533     16534     16530     16533     16535     16531     16530     16532
     16531     16530     16533     16532     16530     16533     16534     16533     16535
     16536     16538     16539     16536     16538     16540     16536     16538     16541
     16536     16542     16543     16536     16542     16544     16536     16542     16545
     16537     16536     16538     16537     16536     16542     16538     16536     16542
     16539     16538     16540     16539     16538     16541     16540     16538     16541
     16542     16545     16546     16542     16545     16547     16542     16545     16548
     16543     16542     16544     16543     16542     16545     16544     16542     16545
     16545     16548     16549     16545     16548     16550     16545     16548     16551
     16546     16545     16547     16546     16545     16548     16547     16545     16548
     16548     16551     16552     16548     16551     16553     16548     16551     16557
     16549     16548     16550     16549     16548     16551     16550     16548     16551
     16551     16553     16554     16551     16553     16555     16551     16553     16556
     16551     16557     16558     16551     16557     16559     16551     16557     16560
     16552     16551     16553     16552     16551     16557     16553     16551     16557
     16554     16553     16555     16554     16553     16556     16555     16553     16556
     16558     16557     16559     16558     16557     16560     16559     16557     16560
     16561     16562     16563     16561     16562     16564     16561     16562     16577
     16561     16565     16566     16561     16565     16567     16561     16565     16568
     16561     16569     16570     16561     16569     16571     16561     16569     16572
     16561     16573     16574     16561     16573     16575     16561     16573     16576
     16562     16561     16565     16562     16561     16569     16562     16561     16573
     16562     16577     16578     16562     16577     16579     16562     16577     16583
     16563     16562     16564     16563     16562     16577     16564     16562     16577
     16565     16561     16569     16565     16561     16573     16566     16565     16567
     16566     16565     16568     16567     16565     16568     16569     16561     16573
     16570     16569     16571     16570     16569     16572     16571     16569     16572
     16574     16573     16575     16574     16573     16576     16575     16573     16576
     16577     16583     16580     16578     16577     16579     16578     16577     16583
     16579     16577     16583     16580     16584     16585     16581     16580     16582
     16581     16580     16583     16581     16580     16584     16582     16580     16583
     16582     16580     16584     16583     16580     16584     16584     16585     16586
     16584     16585     16587     16584     16585     16588     16585     16588     16589
     16585     16588     16590     16585     16588     16596     16586     16585     16587
     16586     16585     16588     16587     16585     16588     16588     16590     16591
     16588     16596     16597     16588     16596     16598     16588     16596     16599
     16589     16588     16590     16589     16588     16596     16590     16588     16596
     16590     16591     16592     16590     16591     16593     16591     16593     16594
     16591     16593     16595     16591     16593     16605     16592     16591     16593
     16593     16605     16606     16593     16605     16607     16593     16605     16608
     16594     16593     16595     16594     16593     16605     16595     16593     16605
     16596     16599     16600     16597     16596     16598     16597     16596     16599
     16598     16596     16599     16599     16600     16601     16599     16600     16602
     16600     16602     16603     16600     16602     16604     16600     16602     16652
     16601     16600     16602     16602     16652     16653     16602     16652     16654
     16602     16652     16655     16603     16602     16604     16603     16602     16652
     16604     16602     16652     16605     16608     16609     16605     16608     16610
     16605     16608     16611     16606     16605     16607     16606     16605     16608
     16607     16605     16608     16608     16611     16612     16608     16611     16613
     16609     16608     16610     16609     16608     16611     16610     16608     16611
     16611     16613     16614     16611     16613     16615     16612     16611     16613
     16613     16615     16616     16613     16615     16617     16613     16615     16618
     16614     16613     16615     16615     16618     16619     16615     16618     16620
     16616     16615     16617     16616     16615     16618     16617     16615     16618
     16618     16620     16621     16618     16620     16622     16619     16618     16620
     16620     16622     16623     16620     16622     16624     16620     16622     16625
     16621     16620     16622     16622     16625     16626     16622     16625     16627
     16623     16622     16624     16623     16622     16625     16624     16622     16625
     16625     16627     16628     16625     16627     16629     16626     16625     16627
     16627     16629     16630     16627     16629     16631     16627     16629     16632
     16628     16627     16629     16629     16632     16633     16629     16632     16634
     16630     16629     16631     16630     16629     16632     16631     16629     16632
     16632     16634     16635     16632     16634     16636     16633     16632     16634
     16634     16636     16637     16634     16636     16638     16634     16636     16639
     16635     16634     16636     16636     16639     16640     16636     16639     16641
     16636     16639     16642     16637     16636     16638     16637     16636     16639
     16638     16636     16639     16639     16642     16643     16639     16642     16644
     16639     16642     16645     16640     16639     16641     16640     16639     16642
     16641     16639     16642     16642     16645     16646     16642     16645     16647
     16642     16645     16648     16643     16642     16644     16643     16642     16645
     16644     16642     16645     16645     16648     16649     16645     16648     16650
     16645     16648     16651     16646     16645     16647     16646     16645     16648
     16647     16645     16648     16649     16648     16650     16649     16648     16651
     16650     16648     16651     16652     16655     16656     16652     16655     16657
     16652     16655     16658     16653     16652     16654     16653     16652     16655
     16654     16652     16655     16655     16658     16659     16655     16658     16660
     16655     16658     16661     16656     16655     16657     16656     16655     16658
     16657     16655     16658     16658     16661     16662     16658     16661     16663
     16658     16661     16664     16659     16658     16660     16659     16658     16661
     16660     16658     16661     16661     16664     16665     16661     16664     16666
     16661     16664     16667     16662     16661     16663     16662     16661     16664
     16663     16661     16664     16664     16667     16668     16664     16667     16669
     16664     16667     16670     16665     16664     16666     16665     16664     16667
     16666     16664     16667     16667     16670     16671     16667     16670     16672
     16667     16670     16673     16668     16667     16669     16668     16667     16670
     16669     16667     16670     16670     16673     16674     16670     16673     16675
     16670     16673     16676     16671     16670     16672     16671     16670     16673
     16672     16670     16673     16673     16676     16677     16673     16676     16678
     16673     16676     16679     16674     16673     16675     16674     16673     16676
     16675     16673     16676     16676     16679     16680     16676     16679     16681
     16676     16679     16682     16677     16676     16678     16677     16676     16679
     16678     16676     16679     16679     16682     16683     16679     16682     16684
     16679     16682     16685     16680     16679     16681     16680     16679     16682
     16681     16679     16682     16682     16685     16686     16682     16685     16687
     16682     16685     16688     16683     16682     16684     16683     16682     16685
     16684     16682     16685     16685     16688     16689     16685     16688     16690
     16685     16688     16691     16686     16685     16687     16686     16685     16688
     16687     16685     16688     16688     16691     16692     16688     16691     16693
     16688     16691     16694     16689     16688     16690     16689     16688     16691
     16690     16688     16691     16691     16694     16695     16691     16694     16696
     16691     16694     16697     16692     16691     16693     16692     16691     16694
     16693     16691     16694     16694     16697     16698     16694     16697     16699
     16694     16697     16700     16695     16694     16696     16695     16694     16697
     16696     16694     16697     16698     16697     16699     16698     16697     16700
     16699     16697     16700     16701     16702     16703     16701     16702     16704
     16701     16702     16705     16701     16706     16707     16701     16706     16708
     16701     16706     16709     16701     16710     16711     16701     16710     16712
     16701     16710     16713     16701     16714     16715     16701     16714     16716
     16701     16714     16717     16702     16701     16706     16702     16701     16710
     16702     16701     16714     16703     16702     16704     16703     16702     16705
     16704     16702     16705     16706     16701     16710     16706     16701     16714
     16707     16706     16708     16707     16706     16709     16708     16706     16709
     16710     16701     16714     16711     16710     16712     16711     16710     16713
     16712     16710     16713     16714     16717     16718     16714     16717     16719
     16714     16717     16724     16715     16714     16716     16715     16714     16717
     16716     16714     16717     16717     16724     16720     16718     16717     16719
     16718     16717     16724     16719     16717     16724     16720     16723     16725
     16721     16720     16722     16721     16720     16723     16721     16720     16724
     16722     16720     16723     16722     16720     16724     16723     16720     16724
     16723     16725     16726     16723     16725     16727     16723     16725     16730
     16725     16730     16728     16725     16730     16731     16725     16730     16732
     16726     16725     16727     16726     16725     16730     16727     16725     16730
     16728     16730     16731     16728     16730     16732     16728     16780     16781
     16728     16780     16782     16729     16728     16730     16729     16728     16780
     16730     16728     16780     16730     16732     16733     16730     16732     16734
     16730     16732     16736     16731     16730     16732     16732     16734     16735
     16732     16736     16737     16732     16736     16738     16733     16732     16734
     16733     16732     16736     16734     16732     16736     16736     16738     16739
     16736     16738     16740     16737     16736     16738     16738     16740     16741
     16738     16740     16742     16738     16740     16743     16739     16738     16740
     16740     16743     16744     16740     16743     16745     16740     16743     16746
     16741     16740     16742     16741     16740     16743     16742     16740     16743
     16743     16746     16747     16743     16746     16748     16743     16746     16749
     16744     16743     16745     16744     16743     16746     16745     16743     16746
     16746     16749     16750     16746     16749     16751     16746     16749     16752
     16747     16746     16748     16747     16746     16749     16748     16746     16749
     16749     16752     16753     16749     16752     16754     16749     16752     16755
     16750     16749     16751     16750     16749     16752     16751     16749     16752
     16752     16755     16756     16752     16755     16757     16752     16755     16758
     16753     16752     16754     16753     16752     16755     16754     16752     16755
     16755     16758     16759     16755     16758     16760     16755     16758     16761
     16756     16755     16757     16756     16755     16758     16757     16755     16758
     16758     16761     16762     16758     16761     16763     16758     16761     16764
     16759     16758     16760     16759     16758     16761     16760     16758     16761
     16761     16764     16765     16761     16764     16766     16761     16764     16767
     16762     16761     16763     16762     16761     16764     16763     16761     16764
     16764     16767     16768     16764     16767     16769     16764     16767     16770
     16765     16764     16766     16765     16764     16767     16766     16764     16767
     16767     16770     16771     16767     16770     16772     16767     16770     16773
     16768     16767     16769     16768     16767     16770     16769     16767     16770
     16770     16773     16774     16770     16773     16775     16770     16773     16776
     16771     16770     16772     16771     16770     16773     16772     16770     16773
     16773     16776     16777     16773     16776     16778     16773     16776     16779
     16774     16773     16775     16774     16773     16776     16775     16773     16776
     16777     16776     16778     16777     16776     16779     16778     16776     16779
     16780     16782     16783     16780     16782     16784     16780     16782     16785
     16781     16780     16782     16782     16785     16786     16782     16785     16787
     16782     16785     16788     16783     16782     16784     16783     16782     16785
     16784     16782     16785     16785     16788     16789     16785     16788     16790
     16785     16788     16791     16786     16785     16787     16786     16785     16788
     16787     16785     16788     16788     16791     16792     16788     16791     16793
     16788     16791     16794     16789     16788     16790     16789     16788     16791
     16790     16788     16791     16791     16794     16795     16791     16794     16796
     16791     16794     16797     16792     16791     16793     16792     16791     16794
     16793     16791     16794     16794     16797     16798     16794     16797     16799
     16794     16797     16800     16795     16794     16796     16795     16794     16797
     16796     16794     16797     16797     16800     16801     16797     16800     16802
     16797     16800     16803     16798     16797     16799     16798     16797     16800
     16799     16797     16800     16800     16803     16804     16800     16803     16805
     16801     16800     16802     16801     16800     16803     16802     16800     16803
     16803     16805     16806     16803     16805     16807     16804     16803     16805
     16805     16807     16808     16805     16807     16809     16805     16807     16810
     16806     16805     16807     16807     16810     16811     16807     16810     16812
     16807     16810     16813     16808     16807     16809     16808     16807     16810
     16809     16807     16810     16810     16813     16814     16810     16813     16815
     16810     16813     16816     16811     16810     16812     16811     16810     16813
     16812     16810     16813     16813     16816     16817     16813     16816     16818
     16813     16816     16819     16814     16813     16815     16814     16813     16816
     16815     16813     16816     16816     16819     16820     16816     16819     16821
     16816     16819     16822     16817     16816     16818     16817     16816     16819
     16818     16816     16819     16819     16822     16823     16819     16822     16824
     16819     16822     16825     16820     16819     16821     16820     16819     16822
     16821     16819     16822     16822     16825     16826     16822     16825     16827
     16822     16825     16828     16823     16822     16824     16823     16822     16825
     16824     16822     16825     16825     16828     16829     16825     16828     16830
     16825     16828     16831     16826     16825     16827     16826     16825     16828
     16827     16825     16828     16829     16828     16830     16829     16828     16831
     16830     16828     16831     16832     16834     16835     16832     16836     16837
     16832     16836     16838     16832     16836     16839     16832     16878     16875
     16832     16878     16879     16832     16878     16880     16833     16832     16834
     16833     16832     16836     16833     16832     16878     16834     16832     16836
     16834     16832     16878     16836     16832     16878     16836     16839     16840
     16836     16839     16870     16837     16836     16838     16837     16836     16839
     16838     16836     16839     16839     16840     16841     16839     16840     16842
     16839     16870     16868     16839     16870     16871     16839     16870     16875
     16840     16839     16870     16840     16842     16843     16840     16842     16844
     16840     16842     16845     16841     16840     16842     16842     16845     16846
     16842     16845     16847     16842     16845     16868     16843     16842     16844
     16843     16842     16845     16844     16842     16845     16845     16847     16848
     16845     16847     16849     16845     16847     16857     16845     16868     16865
     16845     16868     16869     16845     16868     16870     16846     16845     16847
     16846     16845     16868     16847     16845     16868     16847     16849     16850
     16847     16849     16851     16847     16849     16852     16847     16857     16855
     16847     16857     16858     16847     16857     16862     16848     16847     16849
     16848     16847     16857     16849     16847     16857     16849     16852     16853
     16849     16852     16854     16849     16852     16855     16850     16849     16851
     16850     16849     16852     16851     16849     16852     16852     16855     16856
     16852     16855     16857     16852     16855     16881     16853     16852     16854
     16853     16852     16855     16854     16852     16855     16855     16857     16858
     16855     16857     16862     16855     16881     16882     16855     16881     16883
     16855     16881     16887     16856     16855     16857     16856     16855     16881
     16857     16855     16881     16857     16858     16859     16857     16858     16860
     16857     16858     16861     16857     16862     16863     16857     16862     16864
     16857     16862     16865     16858     16857     16862     16859     16858     16860
     16859     16858     16861     16860     16858     16861     16862     16865     16866
     16862     16865     16867     16862     16865     16868     16863     16862     16864
     16863     16862     16865     16864     16862     16865     16865     16868     16869
     16865     16868     16870     16866     16865     16867     16866     16865     16868
     16867     16865     16868     16868     16870     16871     16868     16870     16875
     16869     16868     16870     16870     16871     16872     16870     16871     16873
     16870     16871     16874     16870     16875     16876     16870     16875     16877
     16870     16875     16878     16871     16870     16875     16872     16871     16873
     16872     16871     16874     16873     16871     16874     16875     16878     16879
     16875     16878     16880     16876     16875     16877     16876     16875     16878
     16877     16875     16878     16879     16878     16880     16881     16883     16884
     16881     16883     16885     16881     16883     16886     16881     16887     16888
     16881     16887     16889     16881     16887     16890     16882     16881     16883
     16882     16881     16887     16883     16881     16887     16884     16883     16885
     16884     16883     16886     16885     16883     16886     16887     16890     16891
     16887     16890     16892     16887     16890     16893     16888     16887     16889
     16888     16887     16890     16889     16887     16890     16890     16893     16894
     16890     16893     16895     16890     16893     16896     16891     16890     16892
     16891     16890     16893     16892     16890     16893     16893     16896     16897
     16893     16896     16898     16893     16896     16902     16894     16893     16895
     16894     16893     16896     16895     16893     16896     16896     16898     16899
     16896     16898     16900     16896     16898     16901     16896     16902     16903
     16896     16902     16904     16896     16902     16905     16897     16896     16898
     16897     16896     16902     16898     16896     16902     16899     16898     16900
     16899     16898     16901     16900     16898     16901     16903     16902     16904
     16903     16902     16905     16904     16902     16905     16906     16907     16908
     16906     16907     16909     16906     16907     16910     16906     16911     16912
     16906     16911     16913     16906     16911     16914     16906     16915     16916
     16906     16915     16917     16906     16915     16918     16906     16919     16920
     16906     16919     16921     16906     16919     16922     16907     16906     16911
     16907     16906     16915     16907     16906     16919     16908     16907     16909
     16908     16907     16910     16909     16907     16910     16911     16906     16915
     16911     16906     16919     16912     16911     16913     16912     16911     16914
     16913     16911     16914     16915     16906     16919     16916     16915     16917
     16916     16915     16918     16917     16915     16918     16919     16922     16923
     16919     16922     16924     16919     16922     16929     16920     16919     16921
     16920     16919     16922     16921     16919     16922     16922     16929     16925
     16923     16922     16924     16923     16922     16929     16924     16922     16929
     16925     16928     16930     16926     16925     16927     16926     16925     16928
     16926     16925     16929     16927     16925     16928     16927     16925     16929
     16928     16925     16929     16928     16930     16931     16928     16930     16932
     16928     16930     16935     16930     16935     16933     16930     16935     16936
     16930     16935     16937     16931     16930     16932     16931     16930     16935
     16932     16930     16935     16933     16935     16936     16933     16935     16937
     16933     16985     16986     16933     16985     16987     16934     16933     16935
     16934     16933     16985     16935     16933     16985     16935     16937     16938
     16935     16937     16939     16935     16937     16941     16936     16935     16937
     16937     16939     16940     16937     16941     16942     16937     16941     16943
     16938     16937     16939     16938     16937     16941     16939     16937     16941
     16941     16943     16944     16941     16943     16945     16942     16941     16943
     16943     16945     16946     16943     16945     16947     16943     16945     16948
     16944     16943     16945     16945     16948     16949     16945     16948     16950
     16945     16948     16951     16946     16945     16947     16946     16945     16948
     16947     16945     16948     16948     16951     16952     16948     16951     16953
     16948     16951     16954     16949     16948     16950     16949     16948     16951
     16950     16948     16951     16951     16954     16955     16951     16954     16956
     16951     16954     16957     16952     16951     16953     16952     16951     16954
     16953     16951     16954     16954     16957     16958     16954     16957     16959
     16954     16957     16960     16955     16954     16956     16955     16954     16957
     16956     16954     16957     16957     16960     16961     16957     16960     16962
     16957     16960     16963     16958     16957     16959     16958     16957     16960
     16959     16957     16960     16960     16963     16964     16960     16963     16965
     16960     16963     16966     16961     16960     16962     16961     16960     16963
     16962     16960     16963     16963     16966     16967     16963     16966     16968
     16963     16966     16969     16964     16963     16965     16964     16963     16966
     16965     16963     16966     16966     16969     16970     16966     16969     16971
     16966     16969     16972     16967     16966     16968     16967     16966     16969
     16968     16966     16969     16969     16972     16973     16969     16972     16974
     16969     16972     16975     16970     16969     16971     16970     16969     16972
     16971     16969     16972     16972     16975     16976     16972     16975     16977
     16972     16975     16978     16973     16972     16974     16973     16972     16975
     16974     16972     16975     16975     16978     16979     16975     16978     16980
     16975     16978     16981     16976     16975     16977     16976     16975     16978
     16977     16975     16978     16978     16981     16982     16978     16981     16983
     16978     16981     16984     16979     16978     16980     16979     16978     16981
     16980     16978     16981     16982     16981     16983     16982     16981     16984
     16983     16981     16984     16985     16987     16988     16985     16987     16989
     16985     16987     16990     16986     16985     16987     16987     16990     16991
     16987     16990     16992     16987     16990     16993     16988     16987     16989
     16988     16987     16990     16989     16987     16990     16990     16993     16994
     16990     16993     16995     16990     16993     16996     16991     16990     16992
     16991     16990     16993     16992     16990     16993     16993     16996     16997
     16993     16996     16998     16993     16996     16999     16994     16993     16995
     16994     16993     16996     16995     16993     16996     16996     16999     17000
     16996     16999     17001     16996     16999     17002     16997     16996     16998
     16997     16996     16999     16998     16996     16999     16999     17002     17003
     16999     17002     17004     16999     17002     17005     17000     16999     17001
     17000     16999     17002     17001     16999     17002     17002     17005     17006
     17002     17005     17007     17002     17005     17008     17003     17002     17004
     17003     17002     17005     17004     17002     17005     17005     17008     17009
     17005     17008     17010     17006     17005     17007     17006     17005     17008
     17007     17005     17008     17008     17010     17011     17008     17010     17012
     17009     17008     17010     17010     17012     17013     17010     17012     17014
     17010     17012     17015     17011     17010     17012     17012     17015     17016
     17012     17015     17017     17012     17015     17018     17013     17012     17014
     17013     17012     17015     17014     17012     17015     17015     17018     17019
     17015     17018     17020     17015     17018     17021     17016     17015     17017
     17016     17015     17018     17017     17015     17018     17018     17021     17022
     17018     17021     17023     17018     17021     17024     17019     17018     17020
     17019     17018     17021     17020     17018     17021     17021     17024     17025
     17021     17024     17026     17021     17024     17027     17022     17021     17023
     17022     17021     17024     17023     17021     17024     17024     17027     17028
     17024     17027     17029     17024     17027     17030     17025     17024     17026
     17025     17024     17027     17026     17024     17027     17027     17030     17031
     17027     17030     17032     17027     17030     17033     17028     17027     17029
     17028     17027     17030     17029     17027     17030     17030     17033     17034
     17030     17033     17035     17030     17033     17036     17031     17030     17032
     17031     17030     17033     17032     17030     17033     17034     17033     17035
     17034     17033     17036     17035     17033     17036     17037     17041     17042
     17037     17041     17043     17037     17041     17044     17038     17037     17039
     17038     17037     17040     17038     17037     17041     17039     17037     17040
     17039     17037     17041     17040     17037     17041     17041     17044     17045
     17041     17044     17046     17041     17044     17050     17042     17041     17043
     17042     17041     17044     17043     17041     17044     17044     17050     17047
     17045     17044     17046     17045     17044     17050     17046     17044     17050
     17047     17051     17052     17048     17047     17049     17048     17047     17050
     17048     17047     17051     17049     17047     17050     17049     17047     17051
     17050     17047     17051     17051     17052     17053     17051     17052     17054
     17051     17052     17055     17052     17055     17056     17052     17055     17057
     17052     17055     17063     17053     17052     17054     17053     17052     17055
     17054     17052     17055     17055     17057     17058     17055     17063     17064
     17055     17063     17065     17055     17063     17066     17056     17055     17057
     17056     17055     17063     17057     17055     17063     17057     17058     17059
     17057     17058     17060     17058     17060     17061     17058     17060     17062
     17058     17060     17072     17059     17058     17060     17060     17072     17073
     17060     17072     17074     17060     17072     17075     17061     17060     17062
     17061     17060     17072     17062     17060     17072     17063     17066     17067
     17064     17063     17065     17064     17063     17066     17065     17063     17066
     17066     17067     17068     17066     17067     17069     17067     17069     17070
     17067     17069     17071     17067     17069     17119     17068     17067     17069
     17069     17119     17120     17069     17119     17121     17069     17119     17122
     17070     17069     17071     17070     17069     17119     17071     17069     17119
     17072     17075     17076     17072     17075     17077     17072     17075     17078
     17073     17072     17074     17073     17072     17075     17074     17072     17075
     17075     17078     17079     17075     17078     17080     17076     17075     17077
     17076     17075     17078     17077     17075     17078     17078     17080     17081
     17078     17080     17082     17079     17078     17080     17080     17082     17083
     17080     17082     17084     17080     17082     17085     17081     17080     17082
     17082     17085     17086     17082     17085     17087     17083     17082     17084
     17083     17082     17085     17084     17082     17085     17085     17087     17088
     17085     17087     17089     17086     17085     17087     17087     17089     17090
     17087     17089     17091     17087     17089     17092     17088     17087     17089
     17089     17092     17093     17089     17092     17094     17090     17089     17091
     17090     17089     17092     17091     17089     17092     17092     17094     17095
     17092     17094     17096     17093     17092     17094     17094     17096     17097
     17094     17096     17098     17094     17096     17099     17095     17094     17096
     17096     17099     17100     17096     17099     17101     17097     17096     17098
     17097     17096     17099     17098     17096     17099     17099     17101     17102
     17099     17101     17103     17100     17099     17101     17101     17103     17104
     17101     17103     17105     17101     17103     17106     17102     17101     17103
     17103     17106     17107     17103     17106     17108     17103     17106     17109
     17104     17103     17105     17104     17103     17106     17105     17103     17106
     17106     17109     17110     17106     17109     17111     17106     17109     17112
     17107     17106     17108     17107     17106     17109     17108     17106     17109
     17109     17112     17113     17109     17112     17114     17109     17112     17115
     17110     17109     17111     17110     17109     17112     17111     17109     17112
     17112     17115     17116     17112     17115     17117     17112     17115     17118
     17113     17112     17114     17113     17112     17115     17114     17112     17115
     17116     17115     17117     17116     17115     17118     17117     17115     17118
     17119     17122     17123     17119     17122     17124     17119     17122     17125
     17120     17119     17121     17120     17119     17122     17121     17119     17122
     17122     17125     17126     17122     17125     17127     17122     17125     17128
     17123     17122     17124     17123     17122     17125     17124     17122     17125
     17125     17128     17129     17125     17128     17130     17125     17128     17131
     17126     17125     17127     17126     17125     17128     17127     17125     17128
     17128     17131     17132     17128     17131     17133     17128     17131     17134
     17129     17128     17130     17129     17128     17131     17130     17128     17131
     17131     17134     17135     17131     17134     17136     17131     17134     17137
     17132     17131     17133     17132     17131     17134     17133     17131     17134
     17134     17137     17138     17134     17137     17139     17134     17137     17140
     17135     17134     17136     17135     17134     17137     17136     17134     17137
     17137     17140     17141     17137     17140     17142     17137     17140     17143
     17138     17137     17139     17138     17137     17140     17139     17137     17140
     17140     17143     17144     17140     17143     17145     17140     17143     17146
     17141     17140     17142     17141     17140     17143     17142     17140     17143
     17143     17146     17147     17143     17146     17148     17143     17146     17149
     17144     17143     17145     17144     17143     17146     17145     17143     17146
     17146     17149     17150     17146     17149     17151     17146     17149     17152
     17147     17146     17148     17147     17146     17149     17148     17146     17149
     17149     17152     17153     17149     17152     17154     17149     17152     17155
     17150     17149     17151     17150     17149     17152     17151     17149     17152
     17152     17155     17156     17152     17155     17157     17152     17155     17158
     17153     17152     17154     17153     17152     17155     17154     17152     17155
     17155     17158     17159     17155     17158     17160     17155     17158     17161
     17156     17155     17157     17156     17155     17158     17157     17155     17158
     17158     17161     17162     17158     17161     17163     17158     17161     17164
     17159     17158     17160     17159     17158     17161     17160     17158     17161
     17161     17164     17165     17161     17164     17166     17161     17164     17167
     17162     17161     17163     17162     17161     17164     17163     17161     17164
     17165     17164     17166     17165     17164     17167     17166     17164     17167
     17168     17169     17170     17168     17169     17171     17168     17169     17172
     17168     17173     17174     17168     17173     17175     17168     17173     17176
     17168     17177     17178     17168     17177     17179     17168     17177     17180
     17168     17181     17182     17168     17181     17183     17168     17181     17184
     17169     17168     17173     17169     17168     17177     17169     17168     17181
     17170     17169     17171     17170     17169     17172     17171     17169     17172
     17173     17168     17177     17173     17168     17181     17174     17173     17175
     17174     17173     17176     17175     17173     17176     17177     17168     17181
     17178     17177     17179     17178     17177     17180     17179     17177     17180
     17181     17184     17185     17181     17184     17186     17181     17184     17191
     17182     17181     17183     17182     17181     17184     17183     17181     17184
     17184     17191     17187     17185     17184     17186     17185     17184     17191
     17186     17184     17191     17187     17190     17192     17188     17187     17189
     17188     17187     17190     17188     17187     17191     17189     17187     17190
     17189     17187     17191     17190     17187     17191     17190     17192     17193
     17190     17192     17194     17190     17192     17197     17192     17197     17195
     17192     17197     17198     17192     17197     17199     17193     17192     17194
     17193     17192     17197     17194     17192     17197     17195     17197     17198
     17195     17197     17199     17195     17247     17248     17195     17247     17249
     17196     17195     17197     17196     17195     17247     17197     17195     17247
     17197     17199     17200     17197     17199     17201     17197     17199     17203
     17198     17197     17199     17199     17201     17202     17199     17203     17204
     17199     17203     17205     17200     17199     17201     17200     17199     17203
     17201     17199     17203     17203     17205     17206     17203     17205     17207
     17204     17203     17205     17205     17207     17208     17205     17207     17209
     17205     17207     17210     17206     17205     17207     17207     17210     17211
     17207     17210     17212     17207     17210     17213     17208     17207     17209
     17208     17207     17210     17209     17207     17210     17210     17213     17214
     17210     17213     17215     17210     17213     17216     17211     17210     17212
     17211     17210     17213     17212     17210     17213     17213     17216     17217
     17213     17216     17218     17213     17216     17219     17214     17213     17215
     17214     17213     17216     17215     17213     17216     17216     17219     17220
     17216     17219     17221     17216     17219     17222     17217     17216     17218
     17217     17216     17219     17218     17216     17219     17219     17222     17223
     17219     17222     17224     17219     17222     17225     17220     17219     17221
     17220     17219     17222     17221     17219     17222     17222     17225     17226
     17222     17225     17227     17222     17225     17228     17223     17222     17224
     17223     17222     17225     17224     17222     17225     17225     17228     17229
     17225     17228     17230     17225     17228     17231     17226     17225     17227
     17226     17225     17228     17227     17225     17228     17228     17231     17232
     17228     17231     17233     17228     17231     17234     17229     17228     17230
     17229     17228     17231     17230     17228     17231     17231     17234     17235
     17231     17234     17236     17231     17234     17237     17232     17231     17233
     17232     17231     17234     17233     17231     17234     17234     17237     17238
     17234     17237     17239     17234     17237     17240     17235     17234     17236
     17235     17234     17237     17236     17234     17237     17237     17240     17241
     17237     17240     17242     17237     17240     17243     17238     17237     17239
     17238     17237     17240     17239     17237     17240     17240     17243     17244
     17240     17243     17245     17240     17243     17246     17241     17240     17242
     17241     17240     17243     17242     17240     17243     17244     17243     17245
     17244     17243     17246     17245     17243     17246     17247     17249     17250
     17247     17249     17251     17247     17249     17252     17248     17247     17249
     17249     17252     17253     17249     17252     17254     17249     17252     17255
     17250     17249     17251     17250     17249     17252     17251     17249     17252
     17252     17255     17256     17252     17255     17257     17252     17255     17258
     17253     17252     17254     17253     17252     17255     17254     17252     17255
     17255     17258     17259     17255     17258     17260     17255     17258     17261
     17256     17255     17257     17256     17255     17258     17257     17255     17258
     17258     17261     17262     17258     17261     17263     17258     17261     17264
     17259     17258     17260     17259     17258     17261     17260     17258     17261
     17261     17264     17265     17261     17264     17266     17261     17264     17267
     17262     17261     17263     17262     17261     17264     17263     17261     17264
     17264     17267     17268     17264     17267     17269     17264     17267     17270
     17265     17264     17266     17265     17264     17267     17266     17264     17267
     17267     17270     17271     17267     17270     17272     17268     17267     17269
     17268     17267     17270     17269     17267     17270     17270     17272     17273
     17270     17272     17274     17271     17270     17272     17272     17274     17275
     17272     17274     17276     17272     17274     17277     17273     17272     17274
     17274     17277     17278     17274     17277     17279     17274     17277     17280
     17275     17274     17276     17275     17274     17277     17276     17274     17277
     17277     17280     17281     17277     17280     17282     17277     17280     17283
     17278     17277     17279     17278     17277     17280     17279     17277     17280
     17280     17283     17284     17280     17283     17285     17280     17283     17286
     17281     17280     17282     17281     17280     17283     17282     17280     17283
     17283     17286     17287     17283     17286     17288     17283     17286     17289
     17284     17283     17285     17284     17283     17286     17285     17283     17286
     17286     17289     17290     17286     17289     17291     17286     17289     17292
     17287     17286     17288     17287     17286     17289     17288     17286     17289
     17289     17292     17293     17289     17292     17294     17289     17292     17295
     17290     17289     17291     17290     17289     17292     17291     17289     17292
     17292     17295     17296     17292     17295     17297     17292     17295     17298
     17293     17292     17294     17293     17292     17295     17294     17292     17295
     17296     17295     17297     17296     17295     17298     17297     17295     17298
     17299     17301     17302     17299     17303     17304     17299     17303     17305
     17299     17303     17306     17299     17345     17342     17299     17345     17346
     17299     17345     17347     17300     17299     17301     17300     17299     17303
     17300     17299     17345     17301     17299     17303     17301     17299     17345
     17303     17299     17345     17303     17306     17307     17303     17306     17337
     17304     17303     17305     17304     17303     17306     17305     17303     17306
     17306     17307     17308     17306     17307     17309     17306     17337     17335
     17306     17337     17338     17306     17337     17342     17307     17306     17337
     17307     17309     17310     17307     17309     17311     17307     17309     17312
     17308     17307     17309     17309     17312     17313     17309     17312     17314
     17309     17312     17335     17310     17309     17311     17310     17309     17312
     17311     17309     17312     17312     17314     17315     17312     17314     17316
     17312     17314     17324     17312     17335     17332     17312     17335     17336
     17312     17335     17337     17313     17312     17314     17313     17312     17335
     17314     17312     17335     17314     17316     17317     17314     17316     17318
     17314     17316     17319     17314     17324     17322     17314     17324     17325
     17314     17324     17329     17315     17314     17316     17315     17314     17324
     17316     17314     17324     17316     17319     17320     17316     17319     17321
     17316     17319     17322     17317     17316     17318     17317     17316     17319
     17318     17316     17319     17319     17322     17323     17319     17322     17324
     17319     17322     17348     17320     17319     17321     17320     17319     17322
     17321     17319     17322     17322     17324     17325     17322     17324     17329
     17322     17348     17349     17322     17348     17350     17322     17348     17354
     17323     17322     17324     17323     17322     17348     17324     17322     17348
     17324     17325     17326     17324     17325     17327     17324     17325     17328
     17324     17329     17330     17324     17329     17331     17324     17329     17332
     17325     17324     17329     17326     17325     17327     17326     17325     17328
     17327     17325     17328     17329     17332     17333     17329     17332     17334
     17329     17332     17335     17330     17329     17331     17330     17329     17332
     17331     17329     17332     17332     17335     17336     17332     17335     17337
     17333     17332     17334     17333     17332     17335     17334     17332     17335
     17335     17337     17338     17335     17337     17342     17336     17335     17337
     17337     17338     17339     17337     17338     17340     17337     17338     17341
     17337     17342     17343     17337     17342     17344     17337     17342     17345
     17338     17337     17342     17339     17338     17340     17339     17338     17341
     17340     17338     17341     17342     17345     17346     17342     17345     17347
     17343     17342     17344     17343     17342     17345     17344     17342     17345
     17346     17345     17347     17348     17350     17351     17348     17350     17352
     17348     17350     17353     17348     17354     17355     17348     17354     17356
     17348     17354     17357     17349     17348     17350     17349     17348     17354
     17350     17348     17354     17351     17350     17352     17351     17350     17353
     17352     17350     17353     17354     17357     17358     17354     17357     17359
     17354     17357     17360     17355     17354     17356     17355     17354     17357
     17356     17354     17357     17357     17360     17361     17357     17360     17362
     17357     17360     17363     17358     17357     17359     17358     17357     17360
     17359     17357     17360     17360     17363     17364     17360     17363     17365
     17360     17363     17369     17361     17360     17362     17361     17360     17363
     17362     17360     17363     17363     17365     17366     17363     17365     17367
     17363     17365     17368     17363     17369     17370     17363     17369     17371
     17363     17369     17372     17364     17363     17365     17364     17363     17369
     17365     17363     17369     17366     17365     17367     17366     17365     17368
     17367     17365     17368     17370     17369     17371     17370     17369     17372
     17371     17369     17372     17373     17374     17375     17373     17374     17376
     17373     17374     17377     17373     17378     17379     17373     17378     17380
     17373     17378     17381     17373     17382     17383     17373     17382     17384
     17373     17382     17385     17373     17386     17387     17373     17386     17388
     17373     17386     17389     17374     17373     17378     17374     17373     17382
     17374     17373     17386     17375     17374     17376     17375     17374     17377
     17376     17374     17377     17378     17373     17382     17378     17373     17386
     17379     17378     17380     17379     17378     17381     17380     17378     17381
     17382     17373     17386     17383     17382     17384     17383     17382     17385
     17384     17382     17385     17386     17389     17390     17386     17389     17391
     17386     17389     17396     17387     17386     17388     17387     17386     17389
     17388     17386     17389     17389     17396     17392     17390     17389     17391
     17390     17389     17396     17391     17389     17396     17392     17395     17397
     17393     17392     17394     17393     17392     17395     17393     17392     17396
     17394     17392     17395     17394     17392     17396     17395     17392     17396
     17395     17397     17398     17395     17397     17399     17395     17397     17402
     17397     17402     17400     17397     17402     17403     17397     17402     17404
     17398     17397     17399     17398     17397     17402     17399     17397     17402
     17400     17402     17403     17400     17402     17404     17400     17452     17453
     17400     17452     17454     17401     17400     17402     17401     17400     17452
     17402     17400     17452     17402     17404     17405     17402     17404     17406
     17402     17404     17408     17403     17402     17404     17404     17406     17407
     17404     17408     17409     17404     17408     17410     17405     17404     17406
     17405     17404     17408     17406     17404     17408     17408     17410     17411
     17408     17410     17412     17409     17408     17410     17410     17412     17413
     17410     17412     17414     17410     17412     17415     17411     17410     17412
     17412     17415     17416     17412     17415     17417     17412     17415     17418
     17413     17412     17414     17413     17412     17415     17414     17412     17415
     17415     17418     17419     17415     17418     17420     17415     17418     17421
     17416     17415     17417     17416     17415     17418     17417     17415     17418
     17418     17421     17422     17418     17421     17423     17418     17421     17424
     17419     17418     17420     17419     17418     17421     17420     17418     17421
     17421     17424     17425     17421     17424     17426     17421     17424     17427
     17422     17421     17423     17422     17421     17424     17423     17421     17424
     17424     17427     17428     17424     17427     17429     17424     17427     17430
     17425     17424     17426     17425     17424     17427     17426     17424     17427
     17427     17430     17431     17427     17430     17432     17427     17430     17433
     17428     17427     17429     17428     17427     17430     17429     17427     17430
     17430     17433     17434     17430     17433     17435     17430     17433     17436
     17431     17430     17432     17431     17430     17433     17432     17430     17433
     17433     17436     17437     17433     17436     17438     17433     17436     17439
     17434     17433     17435     17434     17433     17436     17435     17433     17436
     17436     17439     17440     17436     17439     17441     17436     17439     17442
     17437     17436     17438     17437     17436     17439     17438     17436     17439
     17439     17442     17443     17439     17442     17444     17439     17442     17445
     17440     17439     17441     17440     17439     17442     17441     17439     17442
     17442     17445     17446     17442     17445     17447     17442     17445     17448
     17443     17442     17444     17443     17442     17445     17444     17442     17445
     17445     17448     17449     17445     17448     17450     17445     17448     17451
     17446     17445     17447     17446     17445     17448     17447     17445     17448
     17449     17448     17450     17449     17448     17451     17450     17448     17451
     17452     17454     17455     17452     17454     17456     17452     17454     17457
     17453     17452     17454     17454     17457     17458     17454     17457     17459
     17454     17457     17460     17455     17454     17456     17455     17454     17457
     17456     17454     17457     17457     17460     17461     17457     17460     17462
     17457     17460     17463     17458     17457     17459     17458     17457     17460
     17459     17457     17460     17460     17463     17464     17460     17463     17465
     17460     17463     17466     17461     17460     17462     17461     17460     17463
     17462     17460     17463     17463     17466     17467     17463     17466     17468
     17463     17466     17469     17464     17463     17465     17464     17463     17466
     17465     17463     17466     17466     17469     17470     17466     17469     17471
     17466     17469     17472     17467     17466     17468     17467     17466     17469
     17468     17466     17469     17469     17472     17473     17469     17472     17474
     17469     17472     17475     17470     17469     17471     17470     17469     17472
     17471     17469     17472     17472     17475     17476     17472     17475     17477
     17473     17472     17474     17473     17472     17475     17474     17472     17475
     17475     17477     17478     17475     17477     17479     17476     17475     17477
     17477     17479     17480     17477     17479     17481     17477     17479     17482
     17478     17477     17479     17479     17482     17483     17479     17482     17484
     17479     17482     17485     17480     17479     17481     17480     17479     17482
     17481     17479     17482     17482     17485     17486     17482     17485     17487
     17482     17485     17488     17483     17482     17484     17483     17482     17485
     17484     17482     17485     17485     17488     17489     17485     17488     17490
     17485     17488     17491     17486     17485     17487     17486     17485     17488
     17487     17485     17488     17488     17491     17492     17488     17491     17493
     17488     17491     17494     17489     17488     17490     17489     17488     17491
     17490     17488     17491     17491     17494     17495     17491     17494     17496
     17491     17494     17497     17492     17491     17493     17492     17491     17494
     17493     17491     17494     17494     17497     17498     17494     17497     17499
     17494     17497     17500     17495     17494     17496     17495     17494     17497
     17496     17494     17497     17497     17500     17501     17497     17500     17502
     17497     17500     17503     17498     17497     17499     17498     17497     17500
     17499     17497     17500     17501     17500     17502     17501     17500     17503
     17502     17500     17503     17504     17508     17509     17504     17508     17510
     17504     17508     17513     17505     17504     17506     17505     17504     17507
     17505     17504     17508     17506     17504     17507     17506     17504     17508
     17507     17504     17508     17508     17510     17511     17508     17510     17512
     17508     17513     17514     17508     17513     17515     17508     17513     17519
     17509     17508     17510     17509     17508     17513     17510     17508     17513
     17511     17510     17512     17513     17519     17516     17514     17513     17515
     17514     17513     17519     17515     17513     17519     17516     17520     17521
     17517     17516     17518     17517     17516     17519     17517     17516     17520
     17518     17516     17519     17518     17516     17520     17519     17516     17520
     17520     17521     17522     17520     17521     17523     17520     17521     17524
     17521     17524     17525     17521     17524     17526     17521     17524     17532
     17522     17521     17523     17522     17521     17524     17523     17521     17524
     17524     17526     17527     17524     17532     17533     17524     17532     17534
     17524     17532     17535     17525     17524     17526     17525     17524     17532
     17526     17524     17532     17526     17527     17528     17526     17527     17529
     17527     17529     17530     17527     17529     17531     17527     17529     17541
     17528     17527     17529     17529     17541     17542     17529     17541     17543
     17529     17541     17544     17530     17529     17531     17530     17529     17541
     17531     17529     17541     17532     17535     17536     17533     17532     17534
     17533     17532     17535     17534     17532     17535     17535     17536     17537
     17535     17536     17538     17536     17538     17539     17536     17538     17540
     17536     17538     17588     17537     17536     17538     17538     17588     17589
     17538     17588     17590     17538     17588     17591     17539     17538     17540
     17539     17538     17588     17540     17538     17588     17541     17544     17545
     17541     17544     17546     17541     17544     17547     17542     17541     17543
     17542     17541     17544     17543     17541     17544     17544     17547     17548
     17544     17547     17549     17545     17544     17546     17545     17544     17547
     17546     17544     17547     17547     17549     17550     17547     17549     17551
     17548     17547     17549     17549     17551     17552     17549     17551     17553
     17549     17551     17554     17550     17549     17551     17551     17554     17555
     17551     17554     17556     17552     17551     17553     17552     17551     17554
     17553     17551     17554     17554     17556     17557     17554     17556     17558
     17555     17554     17556     17556     17558     17559     17556     17558     17560
     17556     17558     17561     17557     17556     17558     17558     17561     17562
     17558     17561     17563     17559     17558     17560     17559     17558     17561
     17560     17558     17561     17561     17563     17564     17561     17563     17565
     17562     17561     17563     17563     17565     17566     17563     17565     17567
     17563     17565     17568     17564     17563     17565     17565     17568     17569
     17565     17568     17570     17566     17565     17567     17566     17565     17568
     17567     17565     17568     17568     17570     17571     17568     17570     17572
     17569     17568     17570     17570     17572     17573     17570     17572     17574
     17570     17572     17575     17571     17570     17572     17572     17575     17576
     17572     17575     17577     17572     17575     17578     17573     17572     17574
     17573     17572     17575     17574     17572     17575     17575     17578     17579
     17575     17578     17580     17575     17578     17581     17576     17575     17577
     17576     17575     17578     17577     17575     17578     17578     17581     17582
     17578     17581     17583     17578     17581     17584     17579     17578     17580
     17579     17578     17581     17580     17578     17581     17581     17584     17585
     17581     17584     17586     17581     17584     17587     17582     17581     17583
     17582     17581     17584     17583     17581     17584     17585     17584     17586
     17585     17584     17587     17586     17584     17587     17588     17591     17592
     17588     17591     17593     17588     17591     17594     17589     17588     17590
     17589     17588     17591     17590     17588     17591     17591     17594     17595
     17591     17594     17596     17591     17594     17597     17592     17591     17593
     17592     17591     17594     17593     17591     17594     17594     17597     17598
     17594     17597     17599     17594     17597     17600     17595     17594     17596
     17595     17594     17597     17596     17594     17597     17597     17600     17601
     17597     17600     17602     17597     17600     17603     17598     17597     17599
     17598     17597     17600     17599     17597     17600     17600     17603     17604
     17600     17603     17605     17600     17603     17606     17601     17600     17602
     17601     17600     17603     17602     17600     17603     17603     17606     17607
     17603     17606     17608     17603     17606     17609     17604     17603     17605
     17604     17603     17606     17605     17603     17606     17606     17609     17610
     17606     17609     17611     17606     17609     17612     17607     17606     17608
     17607     17606     17609     17608     17606     17609     17609     17612     17613
     17609     17612     17614     17609     17612     17615     17610     17609     17611
     17610     17609     17612     17611     17609     17612     17612     17615     17616
     17612     17615     17617     17612     17615     17618     17613     17612     17614
     17613     17612     17615     17614     17612     17615     17615     17618     17619
     17615     17618     17620     17615     17618     17621     17616     17615     17617
     17616     17615     17618     17617     17615     17618     17618     17621     17622
     17618     17621     17623     17618     17621     17624     17619     17618     17620
     17619     17618     17621     17620     17618     17621     17621     17624     17625
     17621     17624     17626     17621     17624     17627     17622     17621     17623
     17622     17621     17624     17623     17621     17624     17624     17627     17628
     17624     17627     17629     17624     17627     17630     17625     17624     17626
     17625     17624     17627     17626     17624     17627     17627     17630     17631
     17627     17630     17632     17627     17630     17633     17628     17627     17629
     17628     17627     17630     17629     17627     17630     17630     17633     17634
     17630     17633     17635     17630     17633     17636     17631     17630     17632
     17631     17630     17633     17632     17630     17633     17634     17633     17635
     17634     17633     17636     17635     17633     17636     17637     17641     17642
     17637     17641     17643     17637     17641     17644     17638     17637     17639
     17638     17637     17640     17638     17637     17641     17639     17637     17640
     17639     17637     17641     17640     17637     17641     17641     17644     17645
     17641     17644     17646     17641     17644     17650     17642     17641     17643
     17642     17641     17644     17643     17641     17644     17644     17650     17647
     17645     17644     17646     17645     17644     17650     17646     17644     17650
     17647     17651     17652     17648     17647     17649     17648     17647     17650
     17648     17647     17651     17649     17647     17650     17649     17647     17651
     17650     17647     17651     17651     17652     17653     17651     17652     17654
     17651     17652     17655     17652     17655     17656     17652     17655     17657
     17652     17655     17663     17653     17652     17654     17653     17652     17655
     17654     17652     17655     17655     17657     17658     17655     17663     17664
     17655     17663     17665     17655     17663     17666     17656     17655     17657
     17656     17655     17663     17657     17655     17663     17657     17658     17659
     17657     17658     17660     17658     17660     17661     17658     17660     17662
     17658     17660     17672     17659     17658     17660     17660     17672     17673
     17660     17672     17674     17660     17672     17675     17661     17660     17662
     17661     17660     17672     17662     17660     17672     17663     17666     17667
     17664     17663     17665     17664     17663     17666     17665     17663     17666
     17666     17667     17668     17666     17667     17669     17667     17669     17670
     17667     17669     17671     17667     17669     17719     17668     17667     17669
     17669     17719     17720     17669     17719     17721     17669     17719     17722
     17670     17669     17671     17670     17669     17719     17671     17669     17719
     17672     17675     17676     17672     17675     17677     17672     17675     17678
     17673     17672     17674     17673     17672     17675     17674     17672     17675
     17675     17678     17679     17675     17678     17680     17676     17675     17677
     17676     17675     17678     17677     17675     17678     17678     17680     17681
     17678     17680     17682     17679     17678     17680     17680     17682     17683
     17680     17682     17684     17680     17682     17685     17681     17680     17682
     17682     17685     17686     17682     17685     17687     17683     17682     17684
     17683     17682     17685     17684     17682     17685     17685     17687     17688
     17685     17687     17689     17686     17685     17687     17687     17689     17690
     17687     17689     17691     17687     17689     17692     17688     17687     17689
     17689     17692     17693     17689     17692     17694     17690     17689     17691
     17690     17689     17692     17691     17689     17692     17692     17694     17695
     17692     17694     17696     17693     17692     17694     17694     17696     17697
     17694     17696     17698     17694     17696     17699     17695     17694     17696
     17696     17699     17700     17696     17699     17701     17697     17696     17698
     17697     17696     17699     17698     17696     17699     17699     17701     17702
     17699     17701     17703     17700     17699     17701     17701     17703     17704
     17701     17703     17705     17701     17703     17706     17702     17701     17703
     17703     17706     17707     17703     17706     17708     17703     17706     17709
     17704     17703     17705     17704     17703     17706     17705     17703     17706
     17706     17709     17710     17706     17709     17711     17706     17709     17712
     17707     17706     17708     17707     17706     17709     17708     17706     17709
     17709     17712     17713     17709     17712     17714     17709     17712     17715
     17710     17709     17711     17710     17709     17712     17711     17709     17712
     17712     17715     17716     17712     17715     17717     17712     17715     17718
     17713     17712     17714     17713     17712     17715     17714     17712     17715
     17716     17715     17717     17716     17715     17718     17717     17715     17718
     17719     17722     17723     17719     17722     17724     17719     17722     17725
     17720     17719     17721     17720     17719     17722     17721     17719     17722
     17722     17725     17726     17722     17725     17727     17722     17725     17728
     17723     17722     17724     17723     17722     17725     17724     17722     17725
     17725     17728     17729     17725     17728     17730     17725     17728     17731
     17726     17725     17727     17726     17725     17728     17727     17725     17728
     17728     17731     17732     17728     17731     17733     17728     17731     17734
     17729     17728     17730     17729     17728     17731     17730     17728     17731
     17731     17734     17735     17731     17734     17736     17731     17734     17737
     17732     17731     17733     17732     17731     17734     17733     17731     17734
     17734     17737     17738     17734     17737     17739     17734     17737     17740
     17735     17734     17736     17735     17734     17737     17736     17734     17737
     17737     17740     17741     17737     17740     17742     17737     17740     17743
     17738     17737     17739     17738     17737     17740     17739     17737     17740
     17740     17743     17744     17740     17743     17745     17740     17743     17746
     17741     17740     17742     17741     17740     17743     17742     17740     17743
     17743     17746     17747     17743     17746     17748     17743     17746     17749
     17744     17743     17745     17744     17743     17746     17745     17743     17746
     17746     17749     17750     17746     17749     17751     17746     17749     17752
     17747     17746     17748     17747     17746     17749     17748     17746     17749
     17749     17752     17753     17749     17752     17754     17749     17752     17755
     17750     17749     17751     17750     17749     17752     17751     17749     17752
     17752     17755     17756     17752     17755     17757     17752     17755     17758
     17753     17752     17754     17753     17752     17755     17754     17752     17755
     17755     17758     17759     17755     17758     17760     17755     17758     17761
     17756     17755     17757     17756     17755     17758     17757     17755     17758
     17758     17761     17762     17758     17761     17763     17758     17761     17764
     17759     17758     17760     17759     17758     17761     17760     17758     17761
     17761     17764     17765     17761     17764     17766     17761     17764     17767
     17762     17761     17763     17762     17761     17764     17763     17761     17764
     17765     17764     17766     17765     17764     17767     17766     17764     17767
     17768     17769     17770     17768     17769     17771     17768     17769     17784
     17768     17772     17773     17768     17772     17774     17768     17772     17775
     17768     17776     17777     17768     17776     17778     17768     17776     17779
     17768     17780     17781     17768     17780     17782     17768     17780     17783
     17769     17768     17772     17769     17768     17776     17769     17768     17780
     17769     17784     17785     17769     17784     17786     17769     17784     17790
     17770     17769     17771     17770     17769     17784     17771     17769     17784
     17772     17768     17776     17772     17768     17780     17773     17772     17774
     17773     17772     17775     17774     17772     17775     17776     17768     17780
     17777     17776     17778     17777     17776     17779     17778     17776     17779
     17781     17780     17782     17781     17780     17783     17782     17780     17783
     17784     17790     17787     17785     17784     17786     17785     17784     17790
     17786     17784     17790     17787     17791     17792     17788     17787     17789
     17788     17787     17790     17788     17787     17791     17789     17787     17790
     17789     17787     17791     17790     17787     17791     17791     17792     17793
     17791     17792     17794     17791     17792     17795     17792     17795     17796
     17792     17795     17797     17792     17795     17803     17793     17792     17794
     17793     17792     17795     17794     17792     17795     17795     17797     17798
     17795     17803     17804     17795     17803     17805     17795     17803     17806
     17796     17795     17797     17796     17795     17803     17797     17795     17803
     17797     17798     17799     17797     17798     17800     17798     17800     17801
     17798     17800     17802     17798     17800     17812     17799     17798     17800
     17800     17812     17813     17800     17812     17814     17800     17812     17815
     17801     17800     17802     17801     17800     17812     17802     17800     17812
     17803     17806     17807     17804     17803     17805     17804     17803     17806
     17805     17803     17806     17806     17807     17808     17806     17807     17809
     17807     17809     17810     17807     17809     17811     17807     17809     17859
     17808     17807     17809     17809     17859     17860     17809     17859     17861
     17809     17859     17862     17810     17809     17811     17810     17809     17859
     17811     17809     17859     17812     17815     17816     17812     17815     17817
     17812     17815     17818     17813     17812     17814     17813     17812     17815
     17814     17812     17815     17815     17818     17819     17815     17818     17820
     17815     17818     17821     17816     17815     17817     17816     17815     17818
     17817     17815     17818     17818     17821     17822     17818     17821     17823
     17818     17821     17824     17819     17818     17820     17819     17818     17821
     17820     17818     17821     17821     17824     17825     17821     17824     17826
     17821     17824     17827     17822     17821     17823     17822     17821     17824
     17823     17821     17824     17824     17827     17828     17824     17827     17829
     17824     17827     17830     17825     17824     17826     17825     17824     17827
     17826     17824     17827     17827     17830     17831     17827     17830     17832
     17828     17827     17829     17828     17827     17830     17829     17827     17830
     17830     17832     17833     17830     17832     17834     17831     17830     17832
     17832     17834     17835     17832     17834     17836     17832     17834     17837
     17833     17832     17834     17834     17837     17838     17834     17837     17839
     17834     17837     17840     17835     17834     17836     17835     17834     17837
     17836     17834     17837     17837     17840     17841     17837     17840     17842
     17837     17840     17843     17838     17837     17839     17838     17837     17840
     17839     17837     17840     17840     17843     17844     17840     17843     17845
     17840     17843     17846     17841     17840     17842     17841     17840     17843
     17842     17840     17843     17843     17846     17847     17843     17846     17848
     17843     17846     17849     17844     17843     17845     17844     17843     17846
     17845     17843     17846     17846     17849     17850     17846     17849     17851
     17846     17849     17852     17847     17846     17848     17847     17846     17849
     17848     17846     17849     17849     17852     17853     17849     17852     17854
     17849     17852     17855     17850     17849     17851     17850     17849     17852
     17851     17849     17852     17852     17855     17856     17852     17855     17857
     17852     17855     17858     17853     17852     17854     17853     17852     17855
     17854     17852     17855     17856     17855     17857     17856     17855     17858
     17857     17855     17858     17859     17862     17863     17859     17862     17864
     17859     17862     17865     17860     17859     17861     17860     17859     17862
     17861     17859     17862     17862     17865     17866     17862     17865     17867
     17862     17865     17868     17863     17862     17864     17863     17862     17865
     17864     17862     17865     17865     17868     17869     17865     17868     17870
     17865     17868     17871     17866     17865     17867     17866     17865     17868
     17867     17865     17868     17868     17871     17872     17868     17871     17873
     17868     17871     17874     17869     17868     17870     17869     17868     17871
     17870     17868     17871     17871     17874     17875     17871     17874     17876
     17871     17874     17877     17872     17871     17873     17872     17871     17874
     17873     17871     17874     17874     17877     17878     17874     17877     17879
     17874     17877     17880     17875     17874     17876     17875     17874     17877
     17876     17874     17877     17877     17880     17881     17877     17880     17882
     17877     17880     17883     17878     17877     17879     17878     17877     17880
     17879     17877     17880     17880     17883     17884     17880     17883     17885
     17880     17883     17886     17881     17880     17882     17881     17880     17883
     17882     17880     17883     17883     17886     17887     17883     17886     17888
     17883     17886     17889     17884     17883     17885     17884     17883     17886
     17885     17883     17886     17886     17889     17890     17886     17889     17891
     17886     17889     17892     17887     17886     17888     17887     17886     17889
     17888     17886     17889     17889     17892     17893     17889     17892     17894
     17889     17892     17895     17890     17889     17891     17890     17889     17892
     17891     17889     17892     17892     17895     17896     17892     17895     17897
     17892     17895     17898     17893     17892     17894     17893     17892     17895
     17894     17892     17895     17895     17898     17899     17895     17898     17900
     17895     17898     17901     17896     17895     17897     17896     17895     17898
     17897     17895     17898     17899     17898     17900     17899     17898     17901
     17900     17898     17901     17902     17906     17907     17902     17906     17908
     17902     17906     17909     17903     17902     17904     17903     17902     17905
     17903     17902     17906     17904     17902     17905     17904     17902     17906
     17905     17902     17906     17906     17909     17910     17906     17909     17911
     17906     17909     17915     17907     17906     17908     17907     17906     17909
     17908     17906     17909     17909     17915     17912     17910     17909     17911
     17910     17909     17915     17911     17909     17915     17912     17916     17917
     17913     17912     17914     17913     17912     17915     17913     17912     17916
     17914     17912     17915     17914     17912     17916     17915     17912     17916
     17916     17917     17918     17916     17917     17919     17916     17917     17920
     17917     17920     17921     17917     17920     17922     17917     17920     17928
     17918     17917     17919     17918     17917     17920     17919     17917     17920
     17920     17922     17923     17920     17928     17929     17920     17928     17930
     17920     17928     17931     17921     17920     17922     17921     17920     17928
     17922     17920     17928     17922     17923     17924     17922     17923     17925
     17923     17925     17926     17923     17925     17927     17923     17925     17937
     17924     17923     17925     17925     17937     17938     17925     17937     17939
     17925     17937     17940     17926     17925     17927     17926     17925     17937
     17927     17925     17937     17928     17931     17932     17929     17928     17930
     17929     17928     17931     17930     17928     17931     17931     17932     17933
     17931     17932     17934     17932     17934     17935     17932     17934     17936
     17932     17934     17984     17933     17932     17934     17934     17984     17985
     17934     17984     17986     17934     17984     17987     17935     17934     17936
     17935     17934     17984     17936     17934     17984     17937     17940     17941
     17937     17940     17942     17937     17940     17943     17938     17937     17939
     17938     17937     17940     17939     17937     17940     17940     17943     17944
     17940     17943     17945     17940     17943     17946     17941     17940     17942
     17941     17940     17943     17942     17940     17943     17943     17946     17947
     17943     17946     17948     17943     17946     17949     17944     17943     17945
     17944     17943     17946     17945     17943     17946     17946     17949     17950
     17946     17949     17951     17946     17949     17952     17947     17946     17948
     17947     17946     17949     17948     17946     17949     17949     17952     17953
     17949     17952     17954     17949     17952     17955     17950     17949     17951
     17950     17949     17952     17951     17949     17952     17952     17955     17956
     17952     17955     17957     17953     17952     17954     17953     17952     17955
     17954     17952     17955     17955     17957     17958     17955     17957     17959
     17956     17955     17957     17957     17959     17960     17957     17959     17961
     17957     17959     17962     17958     17957     17959     17959     17962     17963
     17959     17962     17964     17959     17962     17965     17960     17959     17961
     17960     17959     17962     17961     17959     17962     17962     17965     17966
     17962     17965     17967     17962     17965     17968     17963     17962     17964
     17963     17962     17965     17964     17962     17965     17965     17968     17969
     17965     17968     17970     17965     17968     17971     17966     17965     17967
     17966     17965     17968     17967     17965     17968     17968     17971     17972
     17968     17971     17973     17968     17971     17974     17969     17968     17970
     17969     17968     17971     17970     17968     17971     17971     17974     17975
     17971     17974     17976     17971     17974     17977     17972     17971     17973
     17972     17971     17974     17973     17971     17974     17974     17977     17978
     17974     17977     17979     17974     17977     17980     17975     17974     17976
     17975     17974     17977     17976     17974     17977     17977     17980     17981
     17977     17980     17982     17977     17980     17983     17978     17977     17979
     17978     17977     17980     17979     17977     17980     17981     17980     17982
     17981     17980     17983     17982     17980     17983     17984     17987     17988
     17984     17987     17989     17984     17987     17990     17985     17984     17986
     17985     17984     17987     17986     17984     17987     17987     17990     17991
     17987     17990     17992     17987     17990     17993     17988     17987     17989
     17988     17987     17990     17989     17987     17990     17990     17993     17994
     17990     17993     17995     17990     17993     17996     17991     17990     17992
     17991     17990     17993     17992     17990     17993     17993     17996     17997
     17993     17996     17998     17993     17996     17999     17994     17993     17995
     17994     17993     17996     17995     17993     17996     17996     17999     18000
     17996     17999     18001     17996     17999     18002     17997     17996     17998
     17997     17996     17999     17998     17996     17999     17999     18002     18003
     17999     18002     18004     17999     18002     18005     18000     17999     18001
     18000     17999     18002     18001     17999     18002     18002     18005     18006
     18002     18005     18007     18002     18005     18008     18003     18002     18004
     18003     18002     18005     18004     18002     18005     18005     18008     18009
     18005     18008     18010     18005     18008     18011     18006     18005     18007
     18006     18005     18008     18007     18005     18008     18008     18011     18012
     18008     18011     18013     18008     18011     18014     18009     18008     18010
     18009     18008     18011     18010     18008     18011     18011     18014     18015
     18011     18014     18016     18011     18014     18017     18012     18011     18013
     18012     18011     18014     18013     18011     18014     18014     18017     18018
     18014     18017     18019     18014     18017     18020     18015     18014     18016
     18015     18014     18017     18016     18014     18017     18017     18020     18021
     18017     18020     18022     18017     18020     18023     18018     18017     18019
     18018     18017     18020     18019     18017     18020     18020     18023     18024
     18020     18023     18025     18020     18023     18026     18021     18020     18022
     18021     18020     18023     18022     18020     18023     18023     18026     18027
     18023     18026     18028     18023     18026     18029     18024     18023     18025
     18024     18023     18026     18025     18023     18026     18026     18029     18030
     18026     18029     18031     18026     18029     18032     18027     18026     18028
     18027     18026     18029     18028     18026     18029     18030     18029     18031
     18030     18029     18032     18031     18029     18032     18033     18035     18036
     18033     18037     18038     18033     18037     18039     18033     18037     18040
     18033     18079     18076     18033     18079     18080     18033     18079     18081
     18034     18033     18035     18034     18033     18037     18034     18033     18079
     18035     18033     18037     18035     18033     18079     18037     18033     18079
     18037     18040     18041     18037     18040     18071     18038     18037     18039
     18038     18037     18040     18039     18037     18040     18040     18041     18042
     18040     18041     18043     18040     18071     18069     18040     18071     18072
     18040     18071     18076     18041     18040     18071     18041     18043     18044
     18041     18043     18045     18041     18043     18046     18042     18041     18043
     18043     18046     18047     18043     18046     18048     18043     18046     18069
     18044     18043     18045     18044     18043     18046     18045     18043     18046
     18046     18048     18049     18046     18048     18050     18046     18048     18058
     18046     18069     18066     18046     18069     18070     18046     18069     18071
     18047     18046     18048     18047     18046     18069     18048     18046     18069
     18048     18050     18051     18048     18050     18052     18048     18050     18053
     18048     18058     18056     18048     18058     18059     18048     18058     18063
     18049     18048     18050     18049     18048     18058     18050     18048     18058
     18050     18053     18054     18050     18053     18055     18050     18053     18056
     18051     18050     18052     18051     18050     18053     18052     18050     18053
     18053     18056     18057     18053     18056     18058     18053     18056     18082
     18054     18053     18055     18054     18053     18056     18055     18053     18056
     18056     18058     18059     18056     18058     18063     18056     18082     18083
     18056     18082     18084     18056     18082     18088     18057     18056     18058
     18057     18056     18082     18058     18056     18082     18058     18059     18060
     18058     18059     18061     18058     18059     18062     18058     18063     18064
     18058     18063     18065     18058     18063     18066     18059     18058     18063
     18060     18059     18061     18060     18059     18062     18061     18059     18062
     18063     18066     18067     18063     18066     18068     18063     18066     18069
     18064     18063     18065     18064     18063     18066     18065     18063     18066
     18066     18069     18070     18066     18069     18071     18067     18066     18068
     18067     18066     18069     18068     18066     18069     18069     18071     18072
     18069     18071     18076     18070     18069     18071     18071     18072     18073
     18071     18072     18074     18071     18072     18075     18071     18076     18077
     18071     18076     18078     18071     18076     18079     18072     18071     18076
     18073     18072     18074     18073     18072     18075     18074     18072     18075
     18076     18079     18080     18076     18079     18081     18077     18076     18078
     18077     18076     18079     18078     18076     18079     18080     18079     18081
     18082     18084     18085     18082     18084     18086     18082     18084     18087
     18082     18088     18089     18082     18088     18090     18082     18088     18091
     18083     18082     18084     18083     18082     18088     18084     18082     18088
     18085     18084     18086     18085     18084     18087     18086     18084     18087
     18088     18091     18092     18088     18091     18093     18088     18091     18094
     18089     18088     18090     18089     18088     18091     18090     18088     18091
     18091     18094     18095     18091     18094     18096     18091     18094     18097
     18092     18091     18093     18092     18091     18094     18093     18091     18094
     18094     18097     18098     18094     18097     18099     18094     18097     18103
     18095     18094     18096     18095     18094     18097     18096     18094     18097
     18097     18099     18100     18097     18099     18101     18097     18099     18102
     18097     18103     18104     18097     18103     18105     18097     18103     18106
     18098     18097     18099     18098     18097     18103     18099     18097     18103
     18100     18099     18101     18100     18099     18102     18101     18099     18102
     18104     18103     18105     18104     18103     18106     18105     18103     18106
     18107     18108     18109     18107     18108     18110     18107     18108     18111
     18107     18112     18113     18107     18112     18114     18107     18112     18115
     18107     18116     18117     18107     18116     18118     18107     18116     18119
     18107     18120     18121     18107     18120     18122     18107     18120     18123
     18108     18107     18112     18108     18107     18116     18108     18107     18120
     18109     18108     18110     18109     18108     18111     18110     18108     18111
     18112     18107     18116     18112     18107     18120     18113     18112     18114
     18113     18112     18115     18114     18112     18115     18116     18107     18120
     18117     18116     18118     18117     18116     18119     18118     18116     18119
     18120     18123     18124     18120     18123     18125     18120     18123     18129
     18121     18120     18122     18121     18120     18123     18122     18120     18123
     18123     18129     18126     18124     18123     18125     18124     18123     18129
     18125     18123     18129     18126     18130     18131     18127     18126     18128
     18127     18126     18129     18127     18126     18130     18128     18126     18129
     18128     18126     18130     18129     18126     18130     18130     18131     18132
     18130     18131     18133     18130     18131     18134     18131     18134     18135
     18131     18134     18136     18131     18134     18142     18132     18131     18133
     18132     18131     18134     18133     18131     18134     18134     18136     18137
     18134     18142     18143     18134     18142     18144     18134     18142     18145
     18135     18134     18136     18135     18134     18142     18136     18134     18142
     18136     18137     18138     18136     18137     18139     18137     18139     18140
     18137     18139     18141     18137     18139     18151     18138     18137     18139
     18139     18151     18152     18139     18151     18153     18139     18151     18154
     18140     18139     18141     18140     18139     18151     18141     18139     18151
     18142     18145     18146     18143     18142     18144     18143     18142     18145
     18144     18142     18145     18145     18146     18147     18145     18146     18148
     18146     18148     18149     18146     18148     18150     18146     18148     18196
     18147     18146     18148     18148     18196     18197     18148     18196     18198
     18148     18196     18199     18149     18148     18150     18149     18148     18196
     18150     18148     18196     18151     18154     18155     18151     18154     18156
     18151     18154     18157     18152     18151     18153     18152     18151     18154
     18153     18151     18154     18154     18157     18158     18154     18157     18159
     18154     18157     18160     18155     18154     18156     18155     18154     18157
     18156     18154     18157     18157     18160     18161     18157     18160     18162
     18157     18160     18163     18158     18157     18159     18158     18157     18160
     18159     18157     18160     18160     18163     18164     18160     18163     18165
     18160     18163     18166     18161     18160     18162     18161     18160     18163
     18162     18160     18163     18163     18166     18167     18163     18166     18168
     18163     18166     18169     18164     18163     18165     18164     18163     18166
     18165     18163     18166     18166     18169     18170     18166     18169     18171
     18167     18166     18168     18167     18166     18169     18168     18166     18169
     18169     18171     18172     18169     18171     18173     18170     18169     18171
     18171     18173     18174     18171     18173     18175     18171     18173     18176
     18172     18171     18173     18173     18176     18177     18173     18176     18178
     18174     18173     18175     18174     18173     18176     18175     18173     18176
     18176     18178     18179     18176     18178     18180     18177     18176     18178
     18178     18180     18181     18178     18180     18182     18178     18180     18183
     18179     18178     18180     18180     18183     18184     18180     18183     18185
     18180     18183     18186     18181     18180     18182     18181     18180     18183
     18182     18180     18183     18183     18186     18187     18183     18186     18188
     18183     18186     18189     18184     18183     18185     18184     18183     18186
     18185     18183     18186     18186     18189     18190     18186     18189     18191
     18186     18189     18192     18187     18186     18188     18187     18186     18189
     18188     18186     18189     18189     18192     18193     18189     18192     18194
     18189     18192     18195     18190     18189     18191     18190     18189     18192
     18191     18189     18192     18193     18192     18194     18193     18192     18195
     18194     18192     18195     18196     18199     18200     18196     18199     18201
     18196     18199     18202     18197     18196     18198     18197     18196     18199
     18198     18196     18199     18199     18202     18203     18199     18202     18204
     18199     18202     18205     18200     18199     18201     18200     18199     18202
     18201     18199     18202     18202     18205     18206     18202     18205     18207
     18202     18205     18208     18203     18202     18204     18203     18202     18205
     18204     18202     18205     18205     18208     18209     18205     18208     18210
     18205     18208     18211     18206     18205     18207     18206     18205     18208
     18207     18205     18208     18208     18211     18212     18208     18211     18213
     18208     18211     18214     18209     18208     18210     18209     18208     18211
     18210     18208     18211     18211     18214     18215     18211     18214     18216
     18211     18214     18217     18212     18211     18213     18212     18211     18214
     18213     18211     18214     18214     18217     18218     18214     18217     18219
     18214     18217     18220     18215     18214     18216     18215     18214     18217
     18216     18214     18217     18217     18220     18221     18217     18220     18222
     18217     18220     18223     18218     18217     18219     18218     18217     18220
     18219     18217     18220     18220     18223     18224     18220     18223     18225
     18220     18223     18226     18221     18220     18222     18221     18220     18223
     18222     18220     18223     18223     18226     18227     18223     18226     18228
     18223     18226     18229     18224     18223     18225     18224     18223     18226
     18225     18223     18226     18226     18229     18230     18226     18229     18231
     18226     18229     18232     18227     18226     18228     18227     18226     18229
     18228     18226     18229     18229     18232     18233     18229     18232     18234
     18229     18232     18235     18230     18229     18231     18230     18229     18232
     18231     18229     18232     18232     18235     18236     18232     18235     18237
     18232     18235     18238     18233     18232     18234     18233     18232     18235
     18234     18232     18235     18235     18238     18239     18235     18238     18240
     18235     18238     18241     18236     18235     18237     18236     18235     18238
     18237     18235     18238     18238     18241     18242     18238     18241     18243
     18238     18241     18244     18239     18238     18240     18239     18238     18241
     18240     18238     18241     18242     18241     18243     18242     18241     18244
     18243     18241     18244     18245     18249     18250     18245     18249     18251
     18245     18249     18252     18246     18245     18247     18246     18245     18248
     18246     18245     18249     18247     18245     18248     18247     18245     18249
     18248     18245     18249     18249     18252     18253     18249     18252     18254
     18249     18252     18258     18250     18249     18251     18250     18249     18252
     18251     18249     18252     18252     18258     18255     18253     18252     18254
     18253     18252     18258     18254     18252     18258     18255     18259     18260
     18256     18255     18257     18256     18255     18258     18256     18255     18259
     18257     18255     18258     18257     18255     18259     18258     18255     18259
     18259     18260     18261     18259     18260     18262     18259     18260     18263
     18260     18263     18264     18260     18263     18265     18260     18263     18271
     18261     18260     18262     18261     18260     18263     18262     18260     18263
     18263     18265     18266     18263     18271     18272     18263     18271     18273
     18263     18271     18274     18264     18263     18265     18264     18263     18271
     18265     18263     18271     18265     18266     18267     18265     18266     18268
     18266     18268     18269     18266     18268     18270     18266     18268     18280
     18267     18266     18268     18268     18280     18281     18268     18280     18282
     18268     18280     18283     18269     18268     18270     18269     18268     18280
     18270     18268     18280     18271     18274     18275     18272     18271     18273
     18272     18271     18274     18273     18271     18274     18274     18275     18276
     18274     18275     18277     18275     18277     18278     18275     18277     18279
     18275     18277     18327     18276     18275     18277     18277     18327     18328
     18277     18327     18329     18277     18327     18330     18278     18277     18279
     18278     18277     18327     18279     18277     18327     18280     18283     18284
     18280     18283     18285     18280     18283     18286     18281     18280     18282
     18281     18280     18283     18282     18280     18283     18283     18286     18287
     18283     18286     18288     18283     18286     18289     18284     18283     18285
     18284     18283     18286     18285     18283     18286     18286     18289     18290
     18286     18289     18291     18286     18289     18292     18287     18286     18288
     18287     18286     18289     18288     18286     18289     18289     18292     18293
     18289     18292     18294     18289     18292     18295     18290     18289     18291
     18290     18289     18292     18291     18289     18292     18292     18295     18296
     18292     18295     18297     18292     18295     18298     18293     18292     18294
     18293     18292     18295     18294     18292     18295     18295     18298     18299
     18295     18298     18300     18296     18295     18297     18296     18295     18298
     18297     18295     18298     18298     18300     18301     18298     18300     18302
     18299     18298     18300     18300     18302     18303     18300     18302     18304
     18300     18302     18305     18301     18300     18302     18302     18305     18306
     18302     18305     18307     18302     18305     18308     18303     18302     18304
     18303     18302     18305     18304     18302     18305     18305     18308     18309
     18305     18308     18310     18305     18308     18311     18306     18305     18307
     18306     18305     18308     18307     18305     18308     18308     18311     18312
     18308     18311     18313     18308     18311     18314     18309     18308     18310
     18309     18308     18311     18310     18308     18311     18311     18314     18315
     18311     18314     18316     18311     18314     18317     18312     18311     18313
     18312     18311     18314     18313     18311     18314     18314     18317     18318
     18314     18317     18319     18314     18317     18320     18315     18314     18316
     18315     18314     18317     18316     18314     18317     18317     18320     18321
     18317     18320     18322     18317     18320     18323     18318     18317     18319
     18318     18317     18320     18319     18317     18320     18320     18323     18324
     18320     18323     18325     18320     18323     18326     18321     18320     18322
     18321     18320     18323     18322     18320     18323     18324     18323     18325
     18324     18323     18326     18325     18323     18326     18327     18330     18331
     18327     18330     18332     18327     18330     18333     18328     18327     18329
     18328     18327     18330     18329     18327     18330     18330     18333     18334
     18330     18333     18335     18330     18333     18336     18331     18330     18332
     18331     18330     18333     18332     18330     18333     18333     18336     18337
     18333     18336     18338     18333     18336     18339     18334     18333     18335
     18334     18333     18336     18335     18333     18336     18336     18339     18340
     18336     18339     18341     18336     18339     18342     18337     18336     18338
     18337     18336     18339     18338     18336     18339     18339     18342     18343
     18339     18342     18344     18339     18342     18345     18340     18339     18341
     18340     18339     18342     18341     18339     18342     18342     18345     18346
     18342     18345     18347     18342     18345     18348     18343     18342     18344
     18343     18342     18345     18344     18342     18345     18345     18348     18349
     18345     18348     18350     18345     18348     18351     18346     18345     18347
     18346     18345     18348     18347     18345     18348     18348     18351     18352
     18348     18351     18353     18348     18351     18354     18349     18348     18350
     18349     18348     18351     18350     18348     18351     18351     18354     18355
     18351     18354     18356     18351     18354     18357     18352     18351     18353
     18352     18351     18354     18353     18351     18354     18354     18357     18358
     18354     18357     18359     18354     18357     18360     18355     18354     18356
     18355     18354     18357     18356     18354     18357     18357     18360     18361
     18357     18360     18362     18357     18360     18363     18358     18357     18359
     18358     18357     18360     18359     18357     18360     18360     18363     18364
     18360     18363     18365     18360     18363     18366     18361     18360     18362
     18361     18360     18363     18362     18360     18363     18363     18366     18367
     18363     18366     18368     18363     18366     18369     18364     18363     18365
     18364     18363     18366     18365     18363     18366     18366     18369     18370
     18366     18369     18371     18366     18369     18372     18367     18366     18368
     18367     18366     18369     18368     18366     18369     18369     18372     18373
     18369     18372     18374     18369     18372     18375     18370     18369     18371
     18370     18369     18372     18371     18369     18372     18373     18372     18374
     18373     18372     18375     18374     18372     18375     18376     18378     18379
     18376     18380     18381     18376     18380     18382     18376     18380     18384
     18376     18396     18392     18376     18396     18397     18376     18396     18401
     18377     18376     18378     18377     18376     18380     18377     18376     18396
     18378     18376     18380     18378     18376     18396     18380     18376     18396
     18380     18382     18383     18380     18384     18385     18380     18384     18386
     18380     18384     18388     18381     18380     18382     18381     18380     18384
     18382     18380     18384     18384     18386     18387     18384     18388     18389
     18384     18388     18390     18384     18388     18392     18385     18384     18386
     18385     18384     18388     18386     18384     18388     18388     18390     18391
     18388     18392     18393     18388     18392     18394     18388     18392     18396
     18389     18388     18390     18389     18388     18392     18390     18388     18392
     18392     18394     18395     18392     18396     18397     18392     18396     18401
     18393     18392     18394     18393     18392     18396     18394     18392     18396
     18396     18401     18398     18397     18396     18401     18398     18402     18403
     18399     18398     18400     18399     18398     18401     18399     18398     18402
     18400     18398     18401     18400     18398     18402     18401     18398     18402
     18402     18403     18404     18402     18403     18405     18402     18403     18406
     18403     18406     18407     18403     18406     18408     18403     18406     18414
     18404     18403     18405     18404     18403     18406     18405     18403     18406
     18406     18408     18409     18406     18414     18415     18406     18414     18416
     18406     18414     18417     18407     18406     18408     18407     18406     18414
     18408     18406     18414     18408     18409     18410     18408     18409     18411
     18409     18411     18412     18409     18411     18413     18409     18411     18423
     18410     18409     18411     18411     18423     18424     18411     18423     18425
     18411     18423     18426     18412     18411     18413     18412     18411     18423
     18413     18411     18423     18414     18417     18418     18415     18414     18416
     18415     18414     18417     18416     18414     18417     18417     18418     18419
     18417     18418     18420     18418     18420     18421     18418     18420     18422
     18418     18420     18470     18419     18418     18420     18420     18470     18471
     18420     18470     18472     18420     18470     18473     18421     18420     18422
     18421     18420     18470     18422     18420     18470     18423     18426     18427
     18423     18426     18428     18423     18426     18429     18424     18423     18425
     18424     18423     18426     18425     18423     18426     18426     18429     18430
     18426     18429     18431     18427     18426     18428     18427     18426     18429
     18428     18426     18429     18429     18431     18432     18429     18431     18433
     18430     18429     18431     18431     18433     18434     18431     18433     18435
     18431     18433     18436     18432     18431     18433     18433     18436     18437
     18433     18436     18438     18434     18433     18435     18434     18433     18436
     18435     18433     18436     18436     18438     18439     18436     18438     18440
     18437     18436     18438     18438     18440     18441     18438     18440     18442
     18438     18440     18443     18439     18438     18440     18440     18443     18444
     18440     18443     18445     18441     18440     18442     18441     18440     18443
     18442     18440     18443     18443     18445     18446     18443     18445     18447
     18444     18443     18445     18445     18447     18448     18445     18447     18449
     18445     18447     18450     18446     18445     18447     18447     18450     18451
     18447     18450     18452     18448     18447     18449     18448     18447     18450
     18449     18447     18450     18450     18452     18453     18450     18452     18454
     18451     18450     18452     18452     18454     18455     18452     18454     18456
     18452     18454     18457     18453     18452     18454     18454     18457     18458
     18454     18457     18459     18454     18457     18460     18455     18454     18456
     18455     18454     18457     18456     18454     18457     18457     18460     18461
     18457     18460     18462     18457     18460     18463     18458     18457     18459
     18458     18457     18460     18459     18457     18460     18460     18463     18464
     18460     18463     18465     18460     18463     18466     18461     18460     18462
     18461     18460     18463     18462     18460     18463     18463     18466     18467
     18463     18466     18468     18463     18466     18469     18464     18463     18465
     18464     18463     18466     18465     18463     18466     18467     18466     18468
     18467     18466     18469     18468     18466     18469     18470     18473     18474
     18470     18473     18475     18470     18473     18476     18471     18470     18472
     18471     18470     18473     18472     18470     18473     18473     18476     18477
     18473     18476     18478     18473     18476     18479     18474     18473     18475
     18474     18473     18476     18475     18473     18476     18476     18479     18480
     18476     18479     18481     18476     18479     18482     18477     18476     18478
     18477     18476     18479     18478     18476     18479     18479     18482     18483
     18479     18482     18484     18479     18482     18485     18480     18479     18481
     18480     18479     18482     18481     18479     18482     18482     18485     18486
     18482     18485     18487     18482     18485     18488     18483     18482     18484
     18483     18482     18485     18484     18482     18485     18485     18488     18489
     18485     18488     18490     18485     18488     18491     18486     18485     18487
     18486     18485     18488     18487     18485     18488     18488     18491     18492
     18488     18491     18493     18488     18491     18494     18489     18488     18490
     18489     18488     18491     18490     18488     18491     18491     18494     18495
     18491     18494     18496     18491     18494     18497     18492     18491     18493
     18492     18491     18494     18493     18491     18494     18494     18497     18498
     18494     18497     18499     18494     18497     18500     18495     18494     18496
     18495     18494     18497     18496     18494     18497     18497     18500     18501
     18497     18500     18502     18497     18500     18503     18498     18497     18499
     18498     18497     18500     18499     18497     18500     18500     18503     18504
     18500     18503     18505     18500     18503     18506     18501     18500     18502
     18501     18500     18503     18502     18500     18503     18503     18506     18507
     18503     18506     18508     18503     18506     18509     18504     18503     18505
     18504     18503     18506     18505     18503     18506     18506     18509     18510
     18506     18509     18511     18506     18509     18512     18507     18506     18508
     18507     18506     18509     18508     18506     18509     18509     18512     18513
     18509     18512     18514     18509     18512     18515     18510     18509     18511
     18510     18509     18512     18511     18509     18512     18512     18515     18516
     18512     18515     18517     18512     18515     18518     18513     18512     18514
     18513     18512     18515     18514     18512     18515     18516     18515     18517
     18516     18515     18518     18517     18515     18518     18519     18521     18522
     18519     18523     18524     18519     18523     18525     18519     18523     18527
     18519     18539     18535     18519     18539     18540     18519     18539     18544
     18520     18519     18521     18520     18519     18523     18520     18519     18539
     18521     18519     18523     18521     18519     18539     18523     18519     18539
     18523     18525     18526     18523     18527     18528     18523     18527     18529
     18523     18527     18531     18524     18523     18525     18524     18523     18527
     18525     18523     18527     18527     18529     18530     18527     18531     18532
     18527     18531     18533     18527     18531     18535     18528     18527     18529
     18528     18527     18531     18529     18527     18531     18531     18533     18534
     18531     18535     18536     18531     18535     18537     18531     18535     18539
     18532     18531     18533     18532     18531     18535     18533     18531     18535
     18535     18537     18538     18535     18539     18540     18535     18539     18544
     18536     18535     18537     18536     18535     18539     18537     18535     18539
     18539     18544     18541     18540     18539     18544     18541     18545     18546
     18542     18541     18543     18542     18541     18544     18542     18541     18545
     18543     18541     18544     18543     18541     18545     18544     18541     18545
     18545     18546     18547     18545     18546     18548     18545     18546     18549
     18546     18549     18550     18546     18549     18551     18546     18549     18557
     18547     18546     18548     18547     18546     18549     18548     18546     18549
     18549     18551     18552     18549     18557     18558     18549     18557     18559
     18549     18557     18560     18550     18549     18551     18550     18549     18557
     18551     18549     18557     18551     18552     18553     18551     18552     18554
     18552     18554     18555     18552     18554     18556     18552     18554     18566
     18553     18552     18554     18554     18566     18567     18554     18566     18568
     18554     18566     18569     18555     18554     18556     18555     18554     18566
     18556     18554     18566     18557     18560     18561     18558     18557     18559
     18558     18557     18560     18559     18557     18560     18560     18561     18562
     18560     18561     18563     18561     18563     18564     18561     18563     18565
     18561     18563     18613     18562     18561     18563     18563     18613     18614
     18563     18613     18615     18563     18613     18616     18564     18563     18565
     18564     18563     18613     18565     18563     18613     18566     18569     18570
     18566     18569     18571     18566     18569     18572     18567     18566     18568
     18567     18566     18569     18568     18566     18569     18569     18572     18573
     18569     18572     18574     18570     18569     18571     18570     18569     18572
     18571     18569     18572     18572     18574     18575     18572     18574     18576
     18573     18572     18574     18574     18576     18577     18574     18576     18578
     18574     18576     18579     18575     18574     18576     18576     18579     18580
     18576     18579     18581     18577     18576     18578     18577     18576     18579
     18578     18576     18579     18579     18581     18582     18579     18581     18583
     18580     18579     18581     18581     18583     18584     18581     18583     18585
     18581     18583     18586     18582     18581     18583     18583     18586     18587
     18583     18586     18588     18584     18583     18585     18584     18583     18586
     18585     18583     18586     18586     18588     18589     18586     18588     18590
     18587     18586     18588     18588     18590     18591     18588     18590     18592
     18588     18590     18593     18589     18588     18590     18590     18593     18594
     18590     18593     18595     18591     18590     18592     18591     18590     18593
     18592     18590     18593     18593     18595     18596     18593     18595     18597
     18594     18593     18595     18595     18597     18598     18595     18597     18599
     18595     18597     18600     18596     18595     18597     18597     18600     18601
     18597     18600     18602     18597     18600     18603     18598     18597     18599
     18598     18597     18600     18599     18597     18600     18600     18603     18604
     18600     18603     18605     18600     18603     18606     18601     18600     18602
     18601     18600     18603     18602     18600     18603     18603     18606     18607
     18603     18606     18608     18603     18606     18609     18604     18603     18605
     18604     18603     18606     18605     18603     18606     18606     18609     18610
     18606     18609     18611     18606     18609     18612     18607     18606     18608
     18607     18606     18609     18608     18606     18609     18610     18609     18611
     18610     18609     18612     18611     18609     18612     18613     18616     18617
     18613     18616     18618     18613     18616     18619     18614     18613     18615
     18614     18613     18616     18615     18613     18616     18616     18619     18620
     18616     18619     18621     18616     18619     18622     18617     18616     18618
     18617     18616     18619     18618     18616     18619     18619     18622     18623
     18619     18622     18624     18619     18622     18625     18620     18619     18621
     18620     18619     18622     18621     18619     18622     18622     18625     18626
     18622     18625     18627     18622     18625     18628     18623     18622     18624
     18623     18622     18625     18624     18622     18625     18625     18628     18629
     18625     18628     18630     18625     18628     18631     18626     18625     18627
     18626     18625     18628     18627     18625     18628     18628     18631     18632
     18628     18631     18633     18628     18631     18634     18629     18628     18630
     18629     18628     18631     18630     18628     18631     18631     18634     18635
     18631     18634     18636     18631     18634     18637     18632     18631     18633
     18632     18631     18634     18633     18631     18634     18634     18637     18638
     18634     18637     18639     18634     18637     18640     18635     18634     18636
     18635     18634     18637     18636     18634     18637     18637     18640     18641
     18637     18640     18642     18637     18640     18643     18638     18637     18639
     18638     18637     18640     18639     18637     18640     18640     18643     18644
     18640     18643     18645     18640     18643     18646     18641     18640     18642
     18641     18640     18643     18642     18640     18643     18643     18646     18647
     18643     18646     18648     18643     18646     18649     18644     18643     18645
     18644     18643     18646     18645     18643     18646     18646     18649     18650
     18646     18649     18651     18646     18649     18652     18647     18646     18648
     18647     18646     18649     18648     18646     18649     18649     18652     18653
     18649     18652     18654     18649     18652     18655     18650     18649     18651
     18650     18649     18652     18651     18649     18652     18652     18655     18656
     18652     18655     18657     18652     18655     18658     18653     18652     18654
     18653     18652     18655     18654     18652     18655     18655     18658     18659
     18655     18658     18660     18655     18658     18661     18656     18655     18657
     18656     18655     18658     18657     18655     18658     18659     18658     18660
     18659     18658     18661     18660     18658     18661     18662     18666     18667
     18662     18666     18668     18662     18666     18669     18663     18662     18664
     18663     18662     18665     18663     18662     18666     18664     18662     18665
     18664     18662     18666     18665     18662     18666     18666     18669     18670
     18666     18669     18671     18666     18669     18675     18667     18666     18668
     18667     18666     18669     18668     18666     18669     18669     18675     18672
     18670     18669     18671     18670     18669     18675     18671     18669     18675
     18672     18676     18677     18673     18672     18674     18673     18672     18675
     18673     18672     18676     18674     18672     18675     18674     18672     18676
     18675     18672     18676     18676     18677     18678     18676     18677     18679
     18676     18677     18680     18677     18680     18681     18677     18680     18682
     18677     18680     18688     18678     18677     18679     18678     18677     18680
     18679     18677     18680     18680     18682     18683     18680     18688     18689
     18680     18688     18690     18680     18688     18691     18681     18680     18682
     18681     18680     18688     18682     18680     18688     18682     18683     18684
     18682     18683     18685     18683     18685     18686     18683     18685     18687
     18683     18685     18697     18684     18683     18685     18685     18697     18698
     18685     18697     18699     18685     18697     18700     18686     18685     18687
     18686     18685     18697     18687     18685     18697     18688     18691     18692
     18689     18688     18690     18689     18688     18691     18690     18688     18691
     18691     18692     18693     18691     18692     18694     18692     18694     18695
     18692     18694     18696     18692     18694     18744     18693     18692     18694
     18694     18744     18745     18694     18744     18746     18694     18744     18747
     18695     18694     18696     18695     18694     18744     18696     18694     18744
     18697     18700     18701     18697     18700     18702     18697     18700     18703
     18698     18697     18699     18698     18697     18700     18699     18697     18700
     18700     18703     18704     18700     18703     18705     18700     18703     18706
     18701     18700     18702     18701     18700     18703     18702     18700     18703
     18703     18706     18707     18703     18706     18708     18703     18706     18709
     18704     18703     18705     18704     18703     18706     18705     18703     18706
     18706     18709     18710     18706     18709     18711     18706     18709     18712
     18707     18706     18708     18707     18706     18709     18708     18706     18709
     18709     18712     18713     18709     18712     18714     18709     18712     18715
     18710     18709     18711     18710     18709     18712     18711     18709     18712
     18712     18715     18716     18712     18715     18717     18713     18712     18714
     18713     18712     18715     18714     18712     18715     18715     18717     18718
     18715     18717     18719     18716     18715     18717     18717     18719     18720
     18717     18719     18721     18717     18719     18722     18718     18717     18719
     18719     18722     18723     18719     18722     18724     18719     18722     18725
     18720     18719     18721     18720     18719     18722     18721     18719     18722
     18722     18725     18726     18722     18725     18727     18722     18725     18728
     18723     18722     18724     18723     18722     18725     18724     18722     18725
     18725     18728     18729     18725     18728     18730     18725     18728     18731
     18726     18725     18727     18726     18725     18728     18727     18725     18728
     18728     18731     18732     18728     18731     18733     18728     18731     18734
     18729     18728     18730     18729     18728     18731     18730     18728     18731
     18731     18734     18735     18731     18734     18736     18731     18734     18737
     18732     18731     18733     18732     18731     18734     18733     18731     18734
     18734     18737     18738     18734     18737     18739     18734     18737     18740
     18735     18734     18736     18735     18734     18737     18736     18734     18737
     18737     18740     18741     18737     18740     18742     18737     18740     18743
     18738     18737     18739     18738     18737     18740     18739     18737     18740
     18741     18740     18742     18741     18740     18743     18742     18740     18743
     18744     18747     18748     18744     18747     18749     18744     18747     18750
     18745     18744     18746     18745     18744     18747     18746     18744     18747
     18747     18750     18751     18747     18750     18752     18747     18750     18753
     18748     18747     18749     18748     18747     18750     18749     18747     18750
     18750     18753     18754     18750     18753     18755     18750     18753     18756
     18751     18750     18752     18751     18750     18753     18752     18750     18753
     18753     18756     18757     18753     18756     18758     18753     18756     18759
     18754     18753     18755     18754     18753     18756     18755     18753     18756
     18756     18759     18760     18756     18759     18761     18756     18759     18762
     18757     18756     18758     18757     18756     18759     18758     18756     18759
     18759     18762     18763     18759     18762     18764     18759     18762     18765
     18760     18759     18761     18760     18759     18762     18761     18759     18762
     18762     18765     18766     18762     18765     18767     18762     18765     18768
     18763     18762     18764     18763     18762     18765     18764     18762     18765
     18765     18768     18769     18765     18768     18770     18765     18768     18771
     18766     18765     18767     18766     18765     18768     18767     18765     18768
     18768     18771     18772     18768     18771     18773     18768     18771     18774
     18769     18768     18770     18769     18768     18771     18770     18768     18771
     18771     18774     18775     18771     18774     18776     18771     18774     18777
     18772     18771     18773     18772     18771     18774     18773     18771     18774
     18774     18777     18778     18774     18777     18779     18774     18777     18780
     18775     18774     18776     18775     18774     18777     18776     18774     18777
     18777     18780     18781     18777     18780     18782     18777     18780     18783
     18778     18777     18779     18778     18777     18780     18779     18777     18780
     18780     18783     18784     18780     18783     18785     18780     18783     18786
     18781     18780     18782     18781     18780     18783     18782     18780     18783
     18783     18786     18787     18783     18786     18788     18783     18786     18789
     18784     18783     18785     18784     18783     18786     18785     18783     18786
     18786     18789     18790     18786     18789     18791     18786     18789     18792
     18787     18786     18788     18787     18786     18789     18788     18786     18789
     18790     18789     18791     18790     18789     18792     18791     18789     18792
     18793     18794     18795     18793     18794     18796     18793     18794     18809
     18793     18797     18798     18793     18797     18799     18793     18797     18800
     18793     18801     18802     18793     18801     18803     18793     18801     18804
     18793     18805     18806     18793     18805     18807     18793     18805     18808
     18794     18793     18797     18794     18793     18801     18794     18793     18805
     18794     18809     18810     18794     18809     18811     18794     18809     18815
     18795     18794     18796     18795     18794     18809     18796     18794     18809
     18797     18793     18801     18797     18793     18805     18798     18797     18799
     18798     18797     18800     18799     18797     18800     18801     18793     18805
     18802     18801     18803     18802     18801     18804     18803     18801     18804
     18806     18805     18807     18806     18805     18808     18807     18805     18808
     18809     18815     18812     18810     18809     18811     18810     18809     18815
     18811     18809     18815     18812     18816     18817     18813     18812     18814
     18813     18812     18815     18813     18812     18816     18814     18812     18815
     18814     18812     18816     18815     18812     18816     18816     18817     18818
     18816     18817     18819     18816     18817     18820     18817     18820     18821
     18817     18820     18822     18817     18820     18828     18818     18817     18819
     18818     18817     18820     18819     18817     18820     18820     18822     18823
     18820     18828     18829     18820     18828     18830     18820     18828     18831
     18821     18820     18822     18821     18820     18828     18822     18820     18828
     18822     18823     18824     18822     18823     18825     18823     18825     18826
     18823     18825     18827     18823     18825     18837     18824     18823     18825
     18825     18837     18838     18825     18837     18839     18825     18837     18840
     18826     18825     18827     18826     18825     18837     18827     18825     18837
     18828     18831     18832     18829     18828     18830     18829     18828     18831
     18830     18828     18831     18831     18832     18833     18831     18832     18834
     18832     18834     18835     18832     18834     18836     18832     18834     18884
     18833     18832     18834     18834     18884     18885     18834     18884     18886
     18834     18884     18887     18835     18834     18836     18835     18834     18884
     18836     18834     18884     18837     18840     18841     18837     18840     18842
     18837     18840     18843     18838     18837     18839     18838     18837     18840
     18839     18837     18840     18840     18843     18844     18840     18843     18845
     18841     18840     18842     18841     18840     18843     18842     18840     18843
     18843     18845     18846     18843     18845     18847     18844     18843     18845
     18845     18847     18848     18845     18847     18849     18845     18847     18850
     18846     18845     18847     18847     18850     18851     18847     18850     18852
     18848     18847     18849     18848     18847     18850     18849     18847     18850
     18850     18852     18853     18850     18852     18854     18851     18850     18852
     18852     18854     18855     18852     18854     18856     18852     18854     18857
     18853     18852     18854     18854     18857     18858     18854     18857     18859
     18855     18854     18856     18855     18854     18857     18856     18854     18857
     18857     18859     18860     18857     18859     18861     18858     18857     18859
     18859     18861     18862     18859     18861     18863     18859     18861     18864
     18860     18859     18861     18861     18864     18865     18861     18864     18866
     18862     18861     18863     18862     18861     18864     18863     18861     18864
     18864     18866     18867     18864     18866     18868     18865     18864     18866
     18866     18868     18869     18866     18868     18870     18866     18868     18871
     18867     18866     18868     18868     18871     18872     18868     18871     18873
     18868     18871     18874     18869     18868     18870     18869     18868     18871
     18870     18868     18871     18871     18874     18875     18871     18874     18876
     18871     18874     18877     18872     18871     18873     18872     18871     18874
     18873     18871     18874     18874     18877     18878     18874     18877     18879
     18874     18877     18880     18875     18874     18876     18875     18874     18877
     18876     18874     18877     18877     18880     18881     18877     18880     18882
     18877     18880     18883     18878     18877     18879     18878     18877     18880
     18879     18877     18880     18881     18880     18882     18881     18880     18883
     18882     18880     18883     18884     18887     18888     18884     18887     18889
     18884     18887     18890     18885     18884     18886     18885     18884     18887
     18886     18884     18887     18887     18890     18891     18887     18890     18892
     18887     18890     18893     18888     18887     18889     18888     18887     18890
     18889     18887     18890     18890     18893     18894     18890     18893     18895
     18890     18893     18896     18891     18890     18892     18891     18890     18893
     18892     18890     18893     18893     18896     18897     18893     18896     18898
     18893     18896     18899     18894     18893     18895     18894     18893     18896
     18895     18893     18896     18896     18899     18900     18896     18899     18901
     18896     18899     18902     18897     18896     18898     18897     18896     18899
     18898     18896     18899     18899     18902     18903     18899     18902     18904
     18899     18902     18905     18900     18899     18901     18900     18899     18902
     18901     18899     18902     18902     18905     18906     18902     18905     18907
     18902     18905     18908     18903     18902     18904     18903     18902     18905
     18904     18902     18905     18905     18908     18909     18905     18908     18910
     18905     18908     18911     18906     18905     18907     18906     18905     18908
     18907     18905     18908     18908     18911     18912     18908     18911     18913
     18908     18911     18914     18909     18908     18910     18909     18908     18911
     18910     18908     18911     18911     18914     18915     18911     18914     18916
     18911     18914     18917     18912     18911     18913     18912     18911     18914
     18913     18911     18914     18914     18917     18918     18914     18917     18919
     18914     18917     18920     18915     18914     18916     18915     18914     18917
     18916     18914     18917     18917     18920     18921     18917     18920     18922
     18917     18920     18923     18918     18917     18919     18918     18917     18920
     18919     18917     18920     18920     18923     18924     18920     18923     18925
     18920     18923     18926     18921     18920     18922     18921     18920     18923
     18922     18920     18923     18923     18926     18927     18923     18926     18928
     18923     18926     18929     18924     18923     18925     18924     18923     18926
     18925     18923     18926     18926     18929     18930     18926     18929     18931
     18926     18929     18932     18927     18926     18928     18927     18926     18929
     18928     18926     18929     18930     18929     18931     18930     18929     18932
     18931     18929     18932     18933     18935     18936     18933     18937     18938
     18933     18937     18939     18933     18937     18940     18933     18979     18976
     18933     18979     18980     18933     18979     18981     18934     18933     18935
     18934     18933     18937     18934     18933     18979     18935     18933     18937
     18935     18933     18979     18937     18933     18979     18937     18940     18941
     18937     18940     18971     18938     18937     18939     18938     18937     18940
     18939     18937     18940     18940     18941     18942     18940     18941     18943
     18940     18971     18969     18940     18971     18972     18940     18971     18976
     18941     18940     18971     18941     18943     18944     18941     18943     18945
     18941     18943     18946     18942     18941     18943     18943     18946     18947
     18943     18946     18948     18943     18946     18969     18944     18943     18945
     18944     18943     18946     18945     18943     18946     18946     18948     18949
     18946     18948     18950     18946     18948     18958     18946     18969     18966
     18946     18969     18970     18946     18969     18971     18947     18946     18948
     18947     18946     18969     18948     18946     18969     18948     18950     18951
     18948     18950     18952     18948     18950     18953     18948     18958     18956
     18948     18958     18959     18948     18958     18963     18949     18948     18950
     18949     18948     18958     18950     18948     18958     18950     18953     18954
     18950     18953     18955     18950     18953     18956     18951     18950     18952
     18951     18950     18953     18952     18950     18953     18953     18956     18957
     18953     18956     18958     18953     18956     18982     18954     18953     18955
     18954     18953     18956     18955     18953     18956     18956     18958     18959
     18956     18958     18963     18956     18982     18983     18956     18982     18984
     18956     18982     18988     18957     18956     18958     18957     18956     18982
     18958     18956     18982     18958     18959     18960     18958     18959     18961
     18958     18959     18962     18958     18963     18964     18958     18963     18965
     18958     18963     18966     18959     18958     18963     18960     18959     18961
     18960     18959     18962     18961     18959     18962     18963     18966     18967
     18963     18966     18968     18963     18966     18969     18964     18963     18965
     18964     18963     18966     18965     18963     18966     18966     18969     18970
     18966     18969     18971     18967     18966     18968     18967     18966     18969
     18968     18966     18969     18969     18971     18972     18969     18971     18976
     18970     18969     18971     18971     18972     18973     18971     18972     18974
     18971     18972     18975     18971     18976     18977     18971     18976     18978
     18971     18976     18979     18972     18971     18976     18973     18972     18974
     18973     18972     18975     18974     18972     18975     18976     18979     18980
     18976     18979     18981     18977     18976     18978     18977     18976     18979
     18978     18976     18979     18980     18979     18981     18982     18984     18985
     18982     18984     18986     18982     18984     18987     18982     18988     18989
     18982     18988     18990     18982     18988     18991     18983     18982     18984
     18983     18982     18988     18984     18982     18988     18985     18984     18986
     18985     18984     18987     18986     18984     18987     18988     18991     18992
     18988     18991     18993     18988     18991     18994     18989     18988     18990
     18989     18988     18991     18990     18988     18991     18991     18994     18995
     18991     18994     18996     18991     18994     18997     18992     18991     18993
     18992     18991     18994     18993     18991     18994     18994     18997     18998
     18994     18997     18999     18994     18997     19003     18995     18994     18996
     18995     18994     18997     18996     18994     18997     18997     18999     19000
     18997     18999     19001     18997     18999     19002     18997     19003     19004
     18997     19003     19005     18997     19003     19006     18998     18997     18999
     18998     18997     19003     18999     18997     19003     19000     18999     19001
     19000     18999     19002     19001     18999     19002     19004     19003     19005
     19004     19003     19006     19005     19003     19006     19007     19011     19012
     19007     19011     19013     19007     19011     19014     19008     19007     19009
     19008     19007     19010     19008     19007     19011     19009     19007     19010
     19009     19007     19011     19010     19007     19011     19011     19014     19015
     19011     19014     19016     19011     19014     19020     19012     19011     19013
     19012     19011     19014     19013     19011     19014     19014     19020     19017
     19015     19014     19016     19015     19014     19020     19016     19014     19020
     19017     19021     19022     19018     19017     19019     19018     19017     19020
     19018     19017     19021     19019     19017     19020     19019     19017     19021
     19020     19017     19021     19021     19022     19023     19021     19022     19024
     19021     19022     19025     19022     19025     19026     19022     19025     19027
     19022     19025     19033     19023     19022     19024     19023     19022     19025
     19024     19022     19025     19025     19027     19028     19025     19033     19034
     19025     19033     19035     19025     19033     19036     19026     19025     19027
     19026     19025     19033     19027     19025     19033     19027     19028     19029
     19027     19028     19030     19028     19030     19031     19028     19030     19032
     19028     19030     19042     19029     19028     19030     19030     19042     19043
     19030     19042     19044     19030     19042     19045     19031     19030     19032
     19031     19030     19042     19032     19030     19042     19033     19036     19037
     19034     19033     19035     19034     19033     19036     19035     19033     19036
     19036     19037     19038     19036     19037     19039     19037     19039     19040
     19037     19039     19041     19037     19039     19089     19038     19037     19039
     19039     19089     19090     19039     19089     19091     19039     19089     19092
     19040     19039     19041     19040     19039     19089     19041     19039     19089
     19042     19045     19046     19042     19045     19047     19042     19045     19048
     19043     19042     19044     19043     19042     19045     19044     19042     19045
     19045     19048     19049     19045     19048     19050     19046     19045     19047
     19046     19045     19048     19047     19045     19048     19048     19050     19051
     19048     19050     19052     19049     19048     19050     19050     19052     19053
     19050     19052     19054     19050     19052     19055     19051     19050     19052
     19052     19055     19056     19052     19055     19057     19053     19052     19054
     19053     19052     19055     19054     19052     19055     19055     19057     19058
     19055     19057     19059     19056     19055     19057     19057     19059     19060
     19057     19059     19061     19057     19059     19062     19058     19057     19059
     19059     19062     19063     19059     19062     19064     19060     19059     19061
     19060     19059     19062     19061     19059     19062     19062     19064     19065
     19062     19064     19066     19063     19062     19064     19064     19066     19067
     19064     19066     19068     19064     19066     19069     19065     19064     19066
     19066     19069     19070     19066     19069     19071     19067     19066     19068
     19067     19066     19069     19068     19066     19069     19069     19071     19072
     19069     19071     19073     19070     19069     19071     19071     19073     19074
     19071     19073     19075     19071     19073     19076     19072     19071     19073
     19073     19076     19077     19073     19076     19078     19073     19076     19079
     19074     19073     19075     19074     19073     19076     19075     19073     19076
     19076     19079     19080     19076     19079     19081     19076     19079     19082
     19077     19076     19078     19077     19076     19079     19078     19076     19079
     19079     19082     19083     19079     19082     19084     19079     19082     19085
     19080     19079     19081     19080     19079     19082     19081     19079     19082
     19082     19085     19086     19082     19085     19087     19082     19085     19088
     19083     19082     19084     19083     19082     19085     19084     19082     19085
     19086     19085     19087     19086     19085     19088     19087     19085     19088
     19089     19092     19093     19089     19092     19094     19089     19092     19095
     19090     19089     19091     19090     19089     19092     19091     19089     19092
     19092     19095     19096     19092     19095     19097     19092     19095     19098
     19093     19092     19094     19093     19092     19095     19094     19092     19095
     19095     19098     19099     19095     19098     19100     19095     19098     19101
     19096     19095     19097     19096     19095     19098     19097     19095     19098
     19098     19101     19102     19098     19101     19103     19098     19101     19104
     19099     19098     19100     19099     19098     19101     19100     19098     19101
     19101     19104     19105     19101     19104     19106     19101     19104     19107
     19102     19101     19103     19102     19101     19104     19103     19101     19104
     19104     19107     19108     19104     19107     19109     19104     19107     19110
     19105     19104     19106     19105     19104     19107     19106     19104     19107
     19107     19110     19111     19107     19110     19112     19107     19110     19113
     19108     19107     19109     19108     19107     19110     19109     19107     19110
     19110     19113     19114     19110     19113     19115     19110     19113     19116
     19111     19110     19112     19111     19110     19113     19112     19110     19113
     19113     19116     19117     19113     19116     19118     19113     19116     19119
     19114     19113     19115     19114     19113     19116     19115     19113     19116
     19116     19119     19120     19116     19119     19121     19116     19119     19122
     19117     19116     19118     19117     19116     19119     19118     19116     19119
     19119     19122     19123     19119     19122     19124     19119     19122     19125
     19120     19119     19121     19120     19119     19122     19121     19119     19122
     19122     19125     19126     19122     19125     19127     19122     19125     19128
     19123     19122     19124     19123     19122     19125     19124     19122     19125
     19125     19128     19129     19125     19128     19130     19125     19128     19131
     19126     19125     19127     19126     19125     19128     19127     19125     19128
     19128     19131     19132     19128     19131     19133     19128     19131     19134
     19129     19128     19130     19129     19128     19131     19130     19128     19131
     19131     19134     19135     19131     19134     19136     19131     19134     19137
     19132     19131     19133     19132     19131     19134     19133     19131     19134
     19135     19134     19136     19135     19134     19137     19136     19134     19137
     19138     19139     19140     19138     19139     19141     19138     19139     19142
     19138     19143     19144     19138     19143     19145     19138     19143     19146
     19138     19147     19148     19138     19147     19149     19138     19147     19150
     19138     19151     19152     19138     19151     19153     19138     19151     19154
     19139     19138     19143     19139     19138     19147     19139     19138     19151
     19140     19139     19141     19140     19139     19142     19141     19139     19142
     19143     19138     19147     19143     19138     19151     19144     19143     19145
     19144     19143     19146     19145     19143     19146     19147     19138     19151
     19148     19147     19149     19148     19147     19150     19149     19147     19150
     19151     19154     19155     19151     19154     19156     19151     19154     19161
     19152     19151     19153     19152     19151     19154     19153     19151     19154
     19154     19161     19157     19155     19154     19156     19155     19154     19161
     19156     19154     19161     19157     19160     19162     19158     19157     19159
     19158     19157     19160     19158     19157     19161     19159     19157     19160
     19159     19157     19161     19160     19157     19161     19160     19162     19163
     19160     19162     19164     19160     19162     19167     19162     19167     19165
     19162     19167     19168     19162     19167     19169     19163     19162     19164
     19163     19162     19167     19164     19162     19167     19165     19167     19168
     19165     19167     19169     19165     19217     19218     19165     19217     19219
     19166     19165     19167     19166     19165     19217     19167     19165     19217
     19167     19169     19170     19167     19169     19171     19167     19169     19173
     19168     19167     19169     19169     19171     19172     19169     19173     19174
     19169     19173     19175     19170     19169     19171     19170     19169     19173
     19171     19169     19173     19173     19175     19176     19173     19175     19177
     19174     19173     19175     19175     19177     19178     19175     19177     19179
     19175     19177     19180     19176     19175     19177     19177     19180     19181
     19177     19180     19182     19177     19180     19183     19178     19177     19179
     19178     19177     19180     19179     19177     19180     19180     19183     19184
     19180     19183     19185     19180     19183     19186     19181     19180     19182
     19181     19180     19183     19182     19180     19183     19183     19186     19187
     19183     19186     19188     19183     19186     19189     19184     19183     19185
     19184     19183     19186     19185     19183     19186     19186     19189     19190
     19186     19189     19191     19186     19189     19192     19187     19186     19188
     19187     19186     19189     19188     19186     19189     19189     19192     19193
     19189     19192     19194     19189     19192     19195     19190     19189     19191
     19190     19189     19192     19191     19189     19192     19192     19195     19196
     19192     19195     19197     19192     19195     19198     19193     19192     19194
     19193     19192     19195     19194     19192     19195     19195     19198     19199
     19195     19198     19200     19195     19198     19201     19196     19195     19197
     19196     19195     19198     19197     19195     19198     19198     19201     19202
     19198     19201     19203     19198     19201     19204     19199     19198     19200
     19199     19198     19201     19200     19198     19201     19201     19204     19205
     19201     19204     19206     19201     19204     19207     19202     19201     19203
     19202     19201     19204     19203     19201     19204     19204     19207     19208
     19204     19207     19209     19204     19207     19210     19205     19204     19206
     19205     19204     19207     19206     19204     19207     19207     19210     19211
     19207     19210     19212     19207     19210     19213     19208     19207     19209
     19208     19207     19210     19209     19207     19210     19210     19213     19214
     19210     19213     19215     19210     19213     19216     19211     19210     19212
     19211     19210     19213     19212     19210     19213     19214     19213     19215
     19214     19213     19216     19215     19213     19216     19217     19219     19220
     19217     19219     19221     19217     19219     19222     19218     19217     19219
     19219     19222     19223     19219     19222     19224     19219     19222     19225
     19220     19219     19221     19220     19219     19222     19221     19219     19222
     19222     19225     19226     19222     19225     19227     19222     19225     19228
     19223     19222     19224     19223     19222     19225     19224     19222     19225
     19225     19228     19229     19225     19228     19230     19225     19228     19231
     19226     19225     19227     19226     19225     19228     19227     19225     19228
     19228     19231     19232     19228     19231     19233     19228     19231     19234
     19229     19228     19230     19229     19228     19231     19230     19228     19231
     19231     19234     19235     19231     19234     19236     19231     19234     19237
     19232     19231     19233     19232     19231     19234     19233     19231     19234
     19234     19237     19238     19234     19237     19239     19234     19237     19240
     19235     19234     19236     19235     19234     19237     19236     19234     19237
     19237     19240     19241     19237     19240     19242     19238     19237     19239
     19238     19237     19240     19239     19237     19240     19240     19242     19243
     19240     19242     19244     19241     19240     19242     19242     19244     19245
     19242     19244     19246     19242     19244     19247     19243     19242     19244
     19244     19247     19248     19244     19247     19249     19244     19247     19250
     19245     19244     19246     19245     19244     19247     19246     19244     19247
     19247     19250     19251     19247     19250     19252     19247     19250     19253
     19248     19247     19249     19248     19247     19250     19249     19247     19250
     19250     19253     19254     19250     19253     19255     19250     19253     19256
     19251     19250     19252     19251     19250     19253     19252     19250     19253
     19253     19256     19257     19253     19256     19258     19253     19256     19259
     19254     19253     19255     19254     19253     19256     19255     19253     19256
     19256     19259     19260     19256     19259     19261     19256     19259     19262
     19257     19256     19258     19257     19256     19259     19258     19256     19259
     19259     19262     19263     19259     19262     19264     19259     19262     19265
     19260     19259     19261     19260     19259     19262     19261     19259     19262
     19262     19265     19266     19262     19265     19267     19262     19265     19268
     19263     19262     19264     19263     19262     19265     19264     19262     19265
     19266     19265     19267     19266     19265     19268     19267     19265     19268
     19269     19271     19272     19269     19273     19274     19269     19273     19275
     19269     19273     19276     19269     19315     19312     19269     19315     19316
     19269     19315     19317     19270     19269     19271     19270     19269     19273
     19270     19269     19315     19271     19269     19273     19271     19269     19315
     19273     19269     19315     19273     19276     19277     19273     19276     19307
     19274     19273     19275     19274     19273     19276     19275     19273     19276
     19276     19277     19278     19276     19277     19279     19276     19307     19305
     19276     19307     19308     19276     19307     19312     19277     19276     19307
     19277     19279     19280     19277     19279     19281     19277     19279     19282
     19278     19277     19279     19279     19282     19283     19279     19282     19284
     19279     19282     19305     19280     19279     19281     19280     19279     19282
     19281     19279     19282     19282     19284     19285     19282     19284     19286
     19282     19284     19294     19282     19305     19302     19282     19305     19306
     19282     19305     19307     19283     19282     19284     19283     19282     19305
     19284     19282     19305     19284     19286     19287     19284     19286     19288
     19284     19286     19289     19284     19294     19292     19284     19294     19295
     19284     19294     19299     19285     19284     19286     19285     19284     19294
     19286     19284     19294     19286     19289     19290     19286     19289     19291
     19286     19289     19292     19287     19286     19288     19287     19286     19289
     19288     19286     19289     19289     19292     19293     19289     19292     19294
     19289     19292     19318     19290     19289     19291     19290     19289     19292
     19291     19289     19292     19292     19294     19295     19292     19294     19299
     19292     19318     19319     19292     19318     19320     19292     19318     19324
     19293     19292     19294     19293     19292     19318     19294     19292     19318
     19294     19295     19296     19294     19295     19297     19294     19295     19298
     19294     19299     19300     19294     19299     19301     19294     19299     19302
     19295     19294     19299     19296     19295     19297     19296     19295     19298
     19297     19295     19298     19299     19302     19303     19299     19302     19304
     19299     19302     19305     19300     19299     19301     19300     19299     19302
     19301     19299     19302     19302     19305     19306     19302     19305     19307
     19303     19302     19304     19303     19302     19305     19304     19302     19305
     19305     19307     19308     19305     19307     19312     19306     19305     19307
     19307     19308     19309     19307     19308     19310     19307     19308     19311
     19307     19312     19313     19307     19312     19314     19307     19312     19315
     19308     19307     19312     19309     19308     19310     19309     19308     19311
     19310     19308     19311     19312     19315     19316     19312     19315     19317
     19313     19312     19314     19313     19312     19315     19314     19312     19315
     19316     19315     19317     19318     19320     19321     19318     19320     19322
     19318     19320     19323     19318     19324     19325     19318     19324     19326
     19318     19324     19327     19319     19318     19320     19319     19318     19324
     19320     19318     19324     19321     19320     19322     19321     19320     19323
     19322     19320     19323     19324     19327     19328     19324     19327     19329
     19324     19327     19330     19325     19324     19326     19325     19324     19327
     19326     19324     19327     19327     19330     19331     19327     19330     19332
     19327     19330     19333     19328     19327     19329     19328     19327     19330
     19329     19327     19330     19330     19333     19334     19330     19333     19335
     19330     19333     19339     19331     19330     19332     19331     19330     19333
     19332     19330     19333     19333     19335     19336     19333     19335     19337
     19333     19335     19338     19333     19339     19340     19333     19339     19341
     19333     19339     19342     19334     19333     19335     19334     19333     19339
     19335     19333     19339     19336     19335     19337     19336     19335     19338
     19337     19335     19338     19340     19339     19341     19340     19339     19342
     19341     19339     19342     19343     19347     19348     19343     19347     19349
     19343     19347     19350     19344     19343     19345     19344     19343     19346
     19344     19343     19347     19345     19343     19346     19345     19343     19347
     19346     19343     19347     19347     19350     19351     19347     19350     19352
     19347     19350     19356     19348     19347     19349     19348     19347     19350
     19349     19347     19350     19350     19356     19353     19351     19350     19352
     19351     19350     19356     19352     19350     19356     19353     19357     19358
     19354     19353     19355     19354     19353     19356     19354     19353     19357
     19355     19353     19356     19355     19353     19357     19356     19353     19357
     19357     19358     19359     19357     19358     19360     19357     19358     19361
     19358     19361     19362     19358     19361     19363     19358     19361     19369
     19359     19358     19360     19359     19358     19361     19360     19358     19361
     19361     19363     19364     19361     19369     19370     19361     19369     19371
     19361     19369     19372     19362     19361     19363     19362     19361     19369
     19363     19361     19369     19363     19364     19365     19363     19364     19366
     19364     19366     19367     19364     19366     19368     19364     19366     19378
     19365     19364     19366     19366     19378     19379     19366     19378     19380
     19366     19378     19381     19367     19366     19368     19367     19366     19378
     19368     19366     19378     19369     19372     19373     19370     19369     19371
     19370     19369     19372     19371     19369     19372     19372     19373     19374
     19372     19373     19375     19373     19375     19376     19373     19375     19377
     19373     19375     19425     19374     19373     19375     19375     19425     19426
     19375     19425     19427     19375     19425     19428     19376     19375     19377
     19376     19375     19425     19377     19375     19425     19378     19381     19382
     19378     19381     19383     19378     19381     19384     19379     19378     19380
     19379     19378     19381     19380     19378     19381     19381     19384     19385
     19381     19384     19386     19382     19381     19383     19382     19381     19384
     19383     19381     19384     19384     19386     19387     19384     19386     19388
     19385     19384     19386     19386     19388     19389     19386     19388     19390
     19386     19388     19391     19387     19386     19388     19388     19391     19392
     19388     19391     19393     19389     19388     19390     19389     19388     19391
     19390     19388     19391     19391     19393     19394     19391     19393     19395
     19392     19391     19393     19393     19395     19396     19393     19395     19397
     19393     19395     19398     19394     19393     19395     19395     19398     19399
     19395     19398     19400     19396     19395     19397     19396     19395     19398
     19397     19395     19398     19398     19400     19401     19398     19400     19402
     19399     19398     19400     19400     19402     19403     19400     19402     19404
     19400     19402     19405     19401     19400     19402     19402     19405     19406
     19402     19405     19407     19403     19402     19404     19403     19402     19405
     19404     19402     19405     19405     19407     19408     19405     19407     19409
     19406     19405     19407     19407     19409     19410     19407     19409     19411
     19407     19409     19412     19408     19407     19409     19409     19412     19413
     19409     19412     19414     19409     19412     19415     19410     19409     19411
     19410     19409     19412     19411     19409     19412     19412     19415     19416
     19412     19415     19417     19412     19415     19418     19413     19412     19414
     19413     19412     19415     19414     19412     19415     19415     19418     19419
     19415     19418     19420     19415     19418     19421     19416     19415     19417
     19416     19415     19418     19417     19415     19418     19418     19421     19422
     19418     19421     19423     19418     19421     19424     19419     19418     19420
     19419     19418     19421     19420     19418     19421     19422     19421     19423
     19422     19421     19424     19423     19421     19424     19425     19428     19429
     19425     19428     19430     19425     19428     19431     19426     19425     19427
     19426     19425     19428     19427     19425     19428     19428     19431     19432
     19428     19431     19433     19428     19431     19434     19429     19428     19430
     19429     19428     19431     19430     19428     19431     19431     19434     19435
     19431     19434     19436     19431     19434     19437     19432     19431     19433
     19432     19431     19434     19433     19431     19434     19434     19437     19438
     19434     19437     19439     19434     19437     19440     19435     19434     19436
     19435     19434     19437     19436     19434     19437     19437     19440     19441
     19437     19440     19442     19437     19440     19443     19438     19437     19439
     19438     19437     19440     19439     19437     19440     19440     19443     19444
     19440     19443     19445     19440     19443     19446     19441     19440     19442
     19441     19440     19443     19442     19440     19443     19443     19446     19447
     19443     19446     19448     19443     19446     19449     19444     19443     19445
     19444     19443     19446     19445     19443     19446     19446     19449     19450
     19446     19449     19451     19446     19449     19452     19447     19446     19448
     19447     19446     19449     19448     19446     19449     19449     19452     19453
     19449     19452     19454     19449     19452     19455     19450     19449     19451
     19450     19449     19452     19451     19449     19452     19452     19455     19456
     19452     19455     19457     19452     19455     19458     19453     19452     19454
     19453     19452     19455     19454     19452     19455     19455     19458     19459
     19455     19458     19460     19455     19458     19461     19456     19455     19457
     19456     19455     19458     19457     19455     19458     19458     19461     19462
     19458     19461     19463     19458     19461     19464     19459     19458     19460
     19459     19458     19461     19460     19458     19461     19461     19464     19465
     19461     19464     19466     19461     19464     19467     19462     19461     19463
     19462     19461     19464     19463     19461     19464     19464     19467     19468
     19464     19467     19469     19464     19467     19470     19465     19464     19466
     19465     19464     19467     19466     19464     19467     19467     19470     19471
     19467     19470     19472     19467     19470     19473     19468     19467     19469
     19468     19467     19470     19469     19467     19470     19471     19470     19472
     19471     19470     19473     19472     19470     19473     19474     19478     19479
     19474     19478     19480     19474     19478     19481     19475     19474     19476
     19475     19474     19477     19475     19474     19478     19476     19474     19477
     19476     19474     19478     19477     19474     19478     19478     19481     19482
     19478     19481     19483     19478     19481     19487     19479     19478     19480
     19479     19478     19481     19480     19478     19481     19481     19487     19484
     19482     19481     19483     19482     19481     19487     19483     19481     19487
     19484     19488     19489     19485     19484     19486     19485     19484     19487
     19485     19484     19488     19486     19484     19487     19486     19484     19488
     19487     19484     19488     19488     19489     19490     19488     19489     19491
     19488     19489     19492     19489     19492     19493     19489     19492     19494
     19489     19492     19500     19490     19489     19491     19490     19489     19492
     19491     19489     19492     19492     19494     19495     19492     19500     19501
     19492     19500     19502     19492     19500     19503     19493     19492     19494
     19493     19492     19500     19494     19492     19500     19494     19495     19496
     19494     19495     19497     19495     19497     19498     19495     19497     19499
     19495     19497     19509     19496     19495     19497     19497     19509     19510
     19497     19509     19511     19497     19509     19512     19498     19497     19499
     19498     19497     19509     19499     19497     19509     19500     19503     19504
     19501     19500     19502     19501     19500     19503     19502     19500     19503
     19503     19504     19505     19503     19504     19506     19504     19506     19507
     19504     19506     19508     19504     19506     19556     19505     19504     19506
     19506     19556     19557     19506     19556     19558     19506     19556     19559
     19507     19506     19508     19507     19506     19556     19508     19506     19556
     19509     19512     19513     19509     19512     19514     19509     19512     19515
     19510     19509     19511     19510     19509     19512     19511     19509     19512
     19512     19515     19516     19512     19515     19517     19512     19515     19518
     19513     19512     19514     19513     19512     19515     19514     19512     19515
     19515     19518     19519     19515     19518     19520     19515     19518     19521
     19516     19515     19517     19516     19515     19518     19517     19515     19518
     19518     19521     19522     19518     19521     19523     19518     19521     19524
     19519     19518     19520     19519     19518     19521     19520     19518     19521
     19521     19524     19525     19521     19524     19526     19521     19524     19527
     19522     19521     19523     19522     19521     19524     19523     19521     19524
     19524     19527     19528     19524     19527     19529     19525     19524     19526
     19525     19524     19527     19526     19524     19527     19527     19529     19530
     19527     19529     19531     19528     19527     19529     19529     19531     19532
     19529     19531     19533     19529     19531     19534     19530     19529     19531
     19531     19534     19535     19531     19534     19536     19531     19534     19537
     19532     19531     19533     19532     19531     19534     19533     19531     19534
     19534     19537     19538     19534     19537     19539     19534     19537     19540
     19535     19534     19536     19535     19534     19537     19536     19534     19537
     19537     19540     19541     19537     19540     19542     19537     19540     19543
     19538     19537     19539     19538     19537     19540     19539     19537     19540
     19540     19543     19544     19540     19543     19545     19540     19543     19546
     19541     19540     19542     19541     19540     19543     19542     19540     19543
     19543     19546     19547     19543     19546     19548     19543     19546     19549
     19544     19543     19545     19544     19543     19546     19545     19543     19546
     19546     19549     19550     19546     19549     19551     19546     19549     19552
     19547     19546     19548     19547     19546     19549     19548     19546     19549
     19549     19552     19553     19549     19552     19554     19549     19552     19555
     19550     19549     19551     19550     19549     19552     19551     19549     19552
     19553     19552     19554     19553     19552     19555     19554     19552     19555
     19556     19559     19560     19556     19559     19561     19556     19559     19562
     19557     19556     19558     19557     19556     19559     19558     19556     19559
     19559     19562     19563     19559     19562     19564     19559     19562     19565
     19560     19559     19561     19560     19559     19562     19561     19559     19562
     19562     19565     19566     19562     19565     19567     19562     19565     19568
     19563     19562     19564     19563     19562     19565     19564     19562     19565
     19565     19568     19569     19565     19568     19570     19565     19568     19571
     19566     19565     19567     19566     19565     19568     19567     19565     19568
     19568     19571     19572     19568     19571     19573     19568     19571     19574
     19569     19568     19570     19569     19568     19571     19570     19568     19571
     19571     19574     19575     19571     19574     19576     19571     19574     19577
     19572     19571     19573     19572     19571     19574     19573     19571     19574
     19574     19577     19578     19574     19577     19579     19574     19577     19580
     19575     19574     19576     19575     19574     19577     19576     19574     19577
     19577     19580     19581     19577     19580     19582     19577     19580     19583
     19578     19577     19579     19578     19577     19580     19579     19577     19580
     19580     19583     19584     19580     19583     19585     19580     19583     19586
     19581     19580     19582     19581     19580     19583     19582     19580     19583
     19583     19586     19587     19583     19586     19588     19583     19586     19589
     19584     19583     19585     19584     19583     19586     19585     19583     19586
     19586     19589     19590     19586     19589     19591     19586     19589     19592
     19587     19586     19588     19587     19586     19589     19588     19586     19589
     19589     19592     19593     19589     19592     19594     19589     19592     19595
     19590     19589     19591     19590     19589     19592     19591     19589     19592
     19592     19595     19596     19592     19595     19597     19592     19595     19598
     19593     19592     19594     19593     19592     19595     19594     19592     19595
     19595     19598     19599     19595     19598     19600     19595     19598     19601
     19596     19595     19597     19596     19595     19598     19597     19595     19598
     19598     19601     19602     19598     19601     19603     19598     19601     19604
     19599     19598     19600     19599     19598     19601     19600     19598     19601
     19602     19601     19603     19602     19601     19604     19603     19601     19604
     19605     19606     19607     19605     19606     19608     19605     19606     19609
     19605     19610     19611     19605     19610     19612     19605     19610     19613
     19605     19614     19615     19605     19614     19616     19605     19614     19617
     19605     19618     19619     19605     19618     19620     19605     19618     19621
     19606     19605     19610     19606     19605     19614     19606     19605     19618
     19607     19606     19608     19607     19606     19609     19608     19606     19609
     19610     19605     19614     19610     19605     19618     19611     19610     19612
     19611     19610     19613     19612     19610     19613     19614     19605     19618
     19615     19614     19616     19615     19614     19617     19616     19614     19617
     19618     19621     19622     19618     19621     19623     19618     19621     19627
     19619     19618     19620     19619     19618     19621     19620     19618     19621
     19621     19627     19624     19622     19621     19623     19622     19621     19627
     19623     19621     19627     19624     19628     19629     19625     19624     19626
     19625     19624     19627     19625     19624     19628     19626     19624     19627
     19626     19624     19628     19627     19624     19628     19628     19629     19630
     19628     19629     19631     19628     19629     19632     19629     19632     19633
     19629     19632     19634     19629     19632     19640     19630     19629     19631
     19630     19629     19632     19631     19629     19632     19632     19634     19635
     19632     19640     19641     19632     19640     19642     19632     19640     19643
     19633     19632     19634     19633     19632     19640     19634     19632     19640
     19634     19635     19636     19634     19635     19637     19635     19637     19638
     19635     19637     19639     19635     19637     19649     19636     19635     19637
     19637     19649     19650     19637     19649     19651     19637     19649     19652
     19638     19637     19639     19638     19637     19649     19639     19637     19649
     19640     19643     19644     19641     19640     19642     19641     19640     19643
     19642     19640     19643     19643     19644     19645     19643     19644     19646
     19644     19646     19647     19644     19646     19648     19644     19646     19694
     19645     19644     19646     19646     19694     19695     19646     19694     19696
     19646     19694     19697     19647     19646     19648     19647     19646     19694
     19648     19646     19694     19649     19652     19653     19649     19652     19654
     19649     19652     19655     19650     19649     19651     19650     19649     19652
     19651     19649     19652     19652     19655     19656     19652     19655     19657
     19652     19655     19658     19653     19652     19654     19653     19652     19655
     19654     19652     19655     19655     19658     19659     19655     19658     19660
     19655     19658     19661     19656     19655     19657     19656     19655     19658
     19657     19655     19658     19658     19661     19662     19658     19661     19663
     19658     19661     19664     19659     19658     19660     19659     19658     19661
     19660     19658     19661     19661     19664     19665     19661     19664     19666
     19661     19664     19667     19662     19661     19663     19662     19661     19664
     19663     19661     19664     19664     19667     19668     19664     19667     19669
     19665     19664     19666     19665     19664     19667     19666     19664     19667
     19667     19669     19670     19667     19669     19671     19668     19667     19669
     19669     19671     19672     19669     19671     19673     19669     19671     19674
     19670     19669     19671     19671     19674     19675     19671     19674     19676
     19672     19671     19673     19672     19671     19674     19673     19671     19674
     19674     19676     19677     19674     19676     19678     19675     19674     19676
     19676     19678     19679     19676     19678     19680     19676     19678     19681
     19677     19676     19678     19678     19681     19682     19678     19681     19683
     19678     19681     19684     19679     19678     19680     19679     19678     19681
     19680     19678     19681     19681     19684     19685     19681     19684     19686
     19681     19684     19687     19682     19681     19683     19682     19681     19684
     19683     19681     19684     19684     19687     19688     19684     19687     19689
     19684     19687     19690     19685     19684     19686     19685     19684     19687
     19686     19684     19687     19687     19690     19691     19687     19690     19692
     19687     19690     19693     19688     19687     19689     19688     19687     19690
     19689     19687     19690     19691     19690     19692     19691     19690     19693
     19692     19690     19693     19694     19697     19698     19694     19697     19699
     19694     19697     19700     19695     19694     19696     19695     19694     19697
     19696     19694     19697     19697     19700     19701     19697     19700     19702
     19697     19700     19703     19698     19697     19699     19698     19697     19700
     19699     19697     19700     19700     19703     19704     19700     19703     19705
     19700     19703     19706     19701     19700     19702     19701     19700     19703
     19702     19700     19703     19703     19706     19707     19703     19706     19708
     19703     19706     19709     19704     19703     19705     19704     19703     19706
     19705     19703     19706     19706     19709     19710     19706     19709     19711
     19706     19709     19712     19707     19706     19708     19707     19706     19709
     19708     19706     19709     19709     19712     19713     19709     19712     19714
     19709     19712     19715     19710     19709     19711     19710     19709     19712
     19711     19709     19712     19712     19715     19716     19712     19715     19717
     19712     19715     19718     19713     19712     19714     19713     19712     19715
     19714     19712     19715     19715     19718     19719     19715     19718     19720
     19715     19718     19721     19716     19715     19717     19716     19715     19718
     19717     19715     19718     19718     19721     19722     19718     19721     19723
     19718     19721     19724     19719     19718     19720     19719     19718     19721
     19720     19718     19721     19721     19724     19725     19721     19724     19726
     19721     19724     19727     19722     19721     19723     19722     19721     19724
     19723     19721     19724     19724     19727     19728     19724     19727     19729
     19724     19727     19730     19725     19724     19726     19725     19724     19727
     19726     19724     19727     19727     19730     19731     19727     19730     19732
     19727     19730     19733     19728     19727     19729     19728     19727     19730
     19729     19727     19730     19730     19733     19734     19730     19733     19735
     19730     19733     19736     19731     19730     19732     19731     19730     19733
     19732     19730     19733     19733     19736     19737     19733     19736     19738
     19733     19736     19739     19734     19733     19735     19734     19733     19736
     19735     19733     19736     19736     19739     19740     19736     19739     19741
     19736     19739     19742     19737     19736     19738     19737     19736     19739
     19738     19736     19739     19740     19739     19741     19740     19739     19742
     19741     19739     19742     19743     19744     19745     19743     19744     19746
     19743     19744     19759     19743     19747     19748     19743     19747     19749
     19743     19747     19750     19743     19751     19752     19743     19751     19753
     19743     19751     19754     19743     19755     19756     19743     19755     19757
     19743     19755     19758     19744     19743     19747     19744     19743     19751
     19744     19743     19755     19744     19759     19760     19744     19759     19761
     19744     19759     19765     19745     19744     19746     19745     19744     19759
     19746     19744     19759     19747     19743     19751     19747     19743     19755
     19748     19747     19749     19748     19747     19750     19749     19747     19750
     19751     19743     19755     19752     19751     19753     19752     19751     19754
     19753     19751     19754     19756     19755     19757     19756     19755     19758
     19757     19755     19758     19759     19765     19762     19760     19759     19761
     19760     19759     19765     19761     19759     19765     19762     19766     19767
     19763     19762     19764     19763     19762     19765     19763     19762     19766
     19764     19762     19765     19764     19762     19766     19765     19762     19766
     19766     19767     19768     19766     19767     19769     19766     19767     19770
     19767     19770     19771     19767     19770     19772     19767     19770     19778
     19768     19767     19769     19768     19767     19770     19769     19767     19770
     19770     19772     19773     19770     19778     19779     19770     19778     19780
     19770     19778     19781     19771     19770     19772     19771     19770     19778
     19772     19770     19778     19772     19773     19774     19772     19773     19775
     19773     19775     19776     19773     19775     19777     19773     19775     19787
     19774     19773     19775     19775     19787     19788     19775     19787     19789
     19775     19787     19790     19776     19775     19777     19776     19775     19787
     19777     19775     19787     19778     19781     19782     19779     19778     19780
     19779     19778     19781     19780     19778     19781     19781     19782     19783
     19781     19782     19784     19782     19784     19785     19782     19784     19786
     19782     19784     19834     19783     19782     19784     19784     19834     19835
     19784     19834     19836     19784     19834     19837     19785     19784     19786
     19785     19784     19834     19786     19784     19834     19787     19790     19791
     19787     19790     19792     19787     19790     19793     19788     19787     19789
     19788     19787     19790     19789     19787     19790     19790     19793     19794
     19790     19793     19795     19791     19790     19792     19791     19790     19793
     19792     19790     19793     19793     19795     19796     19793     19795     19797
     19794     19793     19795     19795     19797     19798     19795     19797     19799
     19795     19797     19800     19796     19795     19797     19797     19800     19801
     19797     19800     19802     19798     19797     19799     19798     19797     19800
     19799     19797     19800     19800     19802     19803     19800     19802     19804
     19801     19800     19802     19802     19804     19805     19802     19804     19806
     19802     19804     19807     19803     19802     19804     19804     19807     19808
     19804     19807     19809     19805     19804     19806     19805     19804     19807
     19806     19804     19807     19807     19809     19810     19807     19809     19811
     19808     19807     19809     19809     19811     19812     19809     19811     19813
     19809     19811     19814     19810     19809     19811     19811     19814     19815
     19811     19814     19816     19812     19811     19813     19812     19811     19814
     19813     19811     19814     19814     19816     19817     19814     19816     19818
     19815     19814     19816     19816     19818     19819     19816     19818     19820
     19816     19818     19821     19817     19816     19818     19818     19821     19822
     19818     19821     19823     19818     19821     19824     19819     19818     19820
     19819     19818     19821     19820     19818     19821     19821     19824     19825
     19821     19824     19826     19821     19824     19827     19822     19821     19823
     19822     19821     19824     19823     19821     19824     19824     19827     19828
     19824     19827     19829     19824     19827     19830     19825     19824     19826
     19825     19824     19827     19826     19824     19827     19827     19830     19831
     19827     19830     19832     19827     19830     19833     19828     19827     19829
     19828     19827     19830     19829     19827     19830     19831     19830     19832
     19831     19830     19833     19832     19830     19833     19834     19837     19838
     19834     19837     19839     19834     19837     19840     19835     19834     19836
     19835     19834     19837     19836     19834     19837     19837     19840     19841
     19837     19840     19842     19837     19840     19843     19838     19837     19839
     19838     19837     19840     19839     19837     19840     19840     19843     19844
     19840     19843     19845     19840     19843     19846     19841     19840     19842
     19841     19840     19843     19842     19840     19843     19843     19846     19847
     19843     19846     19848     19843     19846     19849     19844     19843     19845
     19844     19843     19846     19845     19843     19846     19846     19849     19850
     19846     19849     19851     19846     19849     19852     19847     19846     19848
     19847     19846     19849     19848     19846     19849     19849     19852     19853
     19849     19852     19854     19849     19852     19855     19850     19849     19851
     19850     19849     19852     19851     19849     19852     19852     19855     19856
     19852     19855     19857     19852     19855     19858     19853     19852     19854
     19853     19852     19855     19854     19852     19855     19855     19858     19859
     19855     19858     19860     19855     19858     19861     19856     19855     19857
     19856     19855     19858     19857     19855     19858     19858     19861     19862
     19858     19861     19863     19858     19861     19864     19859     19858     19860
     19859     19858     19861     19860     19858     19861     19861     19864     19865
     19861     19864     19866     19861     19864     19867     19862     19861     19863
     19862     19861     19864     19863     19861     19864     19864     19867     19868
     19864     19867     19869     19864     19867     19870     19865     19864     19866
     19865     19864     19867     19866     19864     19867     19867     19870     19871
     19867     19870     19872     19867     19870     19873     19868     19867     19869
     19868     19867     19870     19869     19867     19870     19870     19873     19874
     19870     19873     19875     19870     19873     19876     19871     19870     19872
     19871     19870     19873     19872     19870     19873     19873     19876     19877
     19873     19876     19878     19873     19876     19879     19874     19873     19875
     19874     19873     19876     19875     19873     19876     19876     19879     19880
     19876     19879     19881     19876     19879     19882     19877     19876     19878
     19877     19876     19879     19878     19876     19879     19880     19879     19881
     19880     19879     19882     19881     19879     19882     19883     19884     19885
     19883     19884     19886     19883     19884     19887     19883     19888     19889
     19883     19888     19890     19883     19888     19891     19883     19892     19893
     19883     19892     19894     19883     19892     19895     19883     19896     19897
     19883     19896     19898     19883     19896     19899     19884     19883     19888
     19884     19883     19892     19884     19883     19896     19885     19884     19886
     19885     19884     19887     19886     19884     19887     19888     19883     19892
     19888     19883     19896     19889     19888     19890     19889     19888     19891
     19890     19888     19891     19892     19883     19896     19893     19892     19894
     19893     19892     19895     19894     19892     19895     19896     19899     19900
     19896     19899     19901     19896     19899     19905     19897     19896     19898
     19897     19896     19899     19898     19896     19899     19899     19905     19902
     19900     19899     19901     19900     19899     19905     19901     19899     19905
     19902     19906     19907     19903     19902     19904     19903     19902     19905
     19903     19902     19906     19904     19902     19905     19904     19902     19906
     19905     19902     19906     19906     19907     19908     19906     19907     19909
     19906     19907     19910     19907     19910     19911     19907     19910     19912
     19907     19910     19918     19908     19907     19909     19908     19907     19910
     19909     19907     19910     19910     19912     19913     19910     19918     19919
     19910     19918     19920     19910     19918     19921     19911     19910     19912
     19911     19910     19918     19912     19910     19918     19912     19913     19914
     19912     19913     19915     19913     19915     19916     19913     19915     19917
     19913     19915     19927     19914     19913     19915     19915     19927     19928
     19915     19927     19929     19915     19927     19930     19916     19915     19917
     19916     19915     19927     19917     19915     19927     19918     19921     19922
     19919     19918     19920     19919     19918     19921     19920     19918     19921
     19921     19922     19923     19921     19922     19924     19922     19924     19925
     19922     19924     19926     19922     19924     19972     19923     19922     19924
     19924     19972     19973     19924     19972     19974     19924     19972     19975
     19925     19924     19926     19925     19924     19972     19926     19924     19972
     19927     19930     19931     19927     19930     19932     19927     19930     19933
     19928     19927     19929     19928     19927     19930     19929     19927     19930
     19930     19933     19934     19930     19933     19935     19930     19933     19936
     19931     19930     19932     19931     19930     19933     19932     19930     19933
     19933     19936     19937     19933     19936     19938     19933     19936     19939
     19934     19933     19935     19934     19933     19936     19935     19933     19936
     19936     19939     19940     19936     19939     19941     19936     19939     19942
     19937     19936     19938     19937     19936     19939     19938     19936     19939
     19939     19942     19943     19939     19942     19944     19939     19942     19945
     19940     19939     19941     19940     19939     19942     19941     19939     19942
     19942     19945     19946     19942     19945     19947     19943     19942     19944
     19943     19942     19945     19944     19942     19945     19945     19947     19948
     19945     19947     19949     19946     19945     19947     19947     19949     19950
     19947     19949     19951     19947     19949     19952     19948     19947     19949
     19949     19952     19953     19949     19952     19954     19950     19949     19951
     19950     19949     19952     19951     19949     19952     19952     19954     19955
     19952     19954     19956     19953     19952     19954     19954     19956     19957
     19954     19956     19958     19954     19956     19959     19955     19954     19956
     19956     19959     19960     19956     19959     19961     19956     19959     19962
     19957     19956     19958     19957     19956     19959     19958     19956     19959
     19959     19962     19963     19959     19962     19964     19959     19962     19965
     19960     19959     19961     19960     19959     19962     19961     19959     19962
     19962     19965     19966     19962     19965     19967     19962     19965     19968
     19963     19962     19964     19963     19962     19965     19964     19962     19965
     19965     19968     19969     19965     19968     19970     19965     19968     19971
     19966     19965     19967     19966     19965     19968     19967     19965     19968
     19969     19968     19970     19969     19968     19971     19970     19968     19971
     19972     19975     19976     19972     19975     19977     19972     19975     19978
     19973     19972     19974     19973     19972     19975     19974     19972     19975
     19975     19978     19979     19975     19978     19980     19975     19978     19981
     19976     19975     19977     19976     19975     19978     19977     19975     19978
     19978     19981     19982     19978     19981     19983     19978     19981     19984
     19979     19978     19980     19979     19978     19981     19980     19978     19981
     19981     19984     19985     19981     19984     19986     19981     19984     19987
     19982     19981     19983     19982     19981     19984     19983     19981     19984
     19984     19987     19988     19984     19987     19989     19984     19987     19990
     19985     19984     19986     19985     19984     19987     19986     19984     19987
     19987     19990     19991     19987     19990     19992     19987     19990     19993
     19988     19987     19989     19988     19987     19990     19989     19987     19990
     19990     19993     19994     19990     19993     19995     19990     19993     19996
     19991     19990     19992     19991     19990     19993     19992     19990     19993
     19993     19996     19997     19993     19996     19998     19993     19996     19999
     19994     19993     19995     19994     19993     19996     19995     19993     19996
     19996     19999     20000     19996     19999     20001     19996     19999     20002
     19997     19996     19998     19997     19996     19999     19998     19996     19999
     19999     20002     20003     19999     20002     20004     19999     20002     20005
     20000     19999     20001     20000     19999     20002     20001     19999     20002
     20002     20005     20006     20002     20005     20007     20002     20005     20008
     20003     20002     20004     20003     20002     20005     20004     20002     20005
     20005     20008     20009     20005     20008     20010     20005     20008     20011
     20006     20005     20007     20006     20005     20008     20007     20005     20008
     20008     20011     20012     20008     20011     20013     20008     20011     20014
     20009     20008     20010     20009     20008     20011     20010     20008     20011
     20011     20014     20015     20011     20014     20016     20011     20014     20017
     20012     20011     20013     20012     20011     20014     20013     20011     20014
     20014     20017     20018     20014     20017     20019     20014     20017     20020
     20015     20014     20016     20015     20014     20017     20016     20014     20017
     20018     20017     20019     20018     20017     20020     20019     20017     20020
     20021     20023     20024     20021     20025     20026     20021     20025     20027
     20021     20025     20028     20021     20067     20064     20021     20067     20068
     20021     20067     20069     20022     20021     20023     20022     20021     20025
     20022     20021     20067     20023     20021     20025     20023     20021     20067
     20025     20021     20067     20025     20028     20029     20025     20028     20059
     20026     20025     20027     20026     20025     20028     20027     20025     20028
     20028     20029     20030     20028     20029     20031     20028     20059     20057
     20028     20059     20060     20028     20059     20064     20029     20028     20059
     20029     20031     20032     20029     20031     20033     20029     20031     20034
     20030     20029     20031     20031     20034     20035     20031     20034     20036
     20031     20034     20057     20032     20031     20033     20032     20031     20034
     20033     20031     20034     20034     20036     20037     20034     20036     20038
     20034     20036     20046     20034     20057     20054     20034     20057     20058
     20034     20057     20059     20035     20034     20036     20035     20034     20057
     20036     20034     20057     20036     20038     20039     20036     20038     20040
     20036     20038     20041     20036     20046     20044     20036     20046     20047
     20036     20046     20051     20037     20036     20038     20037     20036     20046
     20038     20036     20046     20038     20041     20042     20038     20041     20043
     20038     20041     20044     20039     20038     20040     20039     20038     20041
     20040     20038     20041     20041     20044     20045     20041     20044     20046
     20041     20044     20070     20042     20041     20043     20042     20041     20044
     20043     20041     20044     20044     20046     20047     20044     20046     20051
     20044     20070     20071     20044     20070     20072     20044     20070     20076
     20045     20044     20046     20045     20044     20070     20046     20044     20070
     20046     20047     20048     20046     20047     20049     20046     20047     20050
     20046     20051     20052     20046     20051     20053     20046     20051     20054
     20047     20046     20051     20048     20047     20049     20048     20047     20050
     20049     20047     20050     20051     20054     20055     20051     20054     20056
     20051     20054     20057     20052     20051     20053     20052     20051     20054
     20053     20051     20054     20054     20057     20058     20054     20057     20059
     20055     20054     20056     20055     20054     20057     20056     20054     20057
     20057     20059     20060     20057     20059     20064     20058     20057     20059
     20059     20060     20061     20059     20060     20062     20059     20060     20063
     20059     20064     20065     20059     20064     20066     20059     20064     20067
     20060     20059     20064     20061     20060     20062     20061     20060     20063
     20062     20060     20063     20064     20067     20068     20064     20067     20069
     20065     20064     20066     20065     20064     20067     20066     20064     20067
     20068     20067     20069     20070     20072     20073     20070     20072     20074
     20070     20072     20075     20070     20076     20077     20070     20076     20078
     20070     20076     20079     20071     20070     20072     20071     20070     20076
     20072     20070     20076     20073     20072     20074     20073     20072     20075
     20074     20072     20075     20076     20079     20080     20076     20079     20081
     20076     20079     20082     20077     20076     20078     20077     20076     20079
     20078     20076     20079     20079     20082     20083     20079     20082     20084
     20079     20082     20085     20080     20079     20081     20080     20079     20082
     20081     20079     20082     20082     20085     20086     20082     20085     20087
     20082     20085     20091     20083     20082     20084     20083     20082     20085
     20084     20082     20085     20085     20087     20088     20085     20087     20089
     20085     20087     20090     20085     20091     20092     20085     20091     20093
     20085     20091     20094     20086     20085     20087     20086     20085     20091
     20087     20085     20091     20088     20087     20089     20088     20087     20090
     20089     20087     20090     20092     20091     20093     20092     20091     20094
     20093     20091     20094     20095     20097     20098     20095     20099     20100
     20095     20099     20101     20095     20099     20102     20095     20141     20138
     20095     20141     20142     20095     20141     20143     20096     20095     20097
     20096     20095     20099     20096     20095     20141     20097     20095     20099
     20097     20095     20141     20099     20095     20141     20099     20102     20103
     20099     20102     20133     20100     20099     20101     20100     20099     20102
     20101     20099     20102     20102     20103     20104     20102     20103     20105
     20102     20133     20131     20102     20133     20134     20102     20133     20138
     20103     20102     20133     20103     20105     20106     20103     20105     20107
     20103     20105     20108     20104     20103     20105     20105     20108     20109
     20105     20108     20110     20105     20108     20131     20106     20105     20107
     20106     20105     20108     20107     20105     20108     20108     20110     20111
     20108     20110     20112     20108     20110     20120     20108     20131     20128
     20108     20131     20132     20108     20131     20133     20109     20108     20110
     20109     20108     20131     20110     20108     20131     20110     20112     20113
     20110     20112     20114     20110     20112     20115     20110     20120     20118
     20110     20120     20121     20110     20120     20125     20111     20110     20112
     20111     20110     20120     20112     20110     20120     20112     20115     20116
     20112     20115     20117     20112     20115     20118     20113     20112     20114
     20113     20112     20115     20114     20112     20115     20115     20118     20119
     20115     20118     20120     20115     20118     20144     20116     20115     20117
     20116     20115     20118     20117     20115     20118     20118     20120     20121
     20118     20120     20125     20118     20144     20145     20118     20144     20146
     20118     20144     20150     20119     20118     20120     20119     20118     20144
     20120     20118     20144     20120     20121     20122     20120     20121     20123
     20120     20121     20124     20120     20125     20126     20120     20125     20127
     20120     20125     20128     20121     20120     20125     20122     20121     20123
     20122     20121     20124     20123     20121     20124     20125     20128     20129
     20125     20128     20130     20125     20128     20131     20126     20125     20127
     20126     20125     20128     20127     20125     20128     20128     20131     20132
     20128     20131     20133     20129     20128     20130     20129     20128     20131
     20130     20128     20131     20131     20133     20134     20131     20133     20138
     20132     20131     20133     20133     20134     20135     20133     20134     20136
     20133     20134     20137     20133     20138     20139     20133     20138     20140
     20133     20138     20141     20134     20133     20138     20135     20134     20136
     20135     20134     20137     20136     20134     20137     20138     20141     20142
     20138     20141     20143     20139     20138     20140     20139     20138     20141
     20140     20138     20141     20142     20141     20143     20144     20146     20147
     20144     20146     20148     20144     20146     20149     20144     20150     20151
     20144     20150     20152     20144     20150     20153     20145     20144     20146
     20145     20144     20150     20146     20144     20150     20147     20146     20148
     20147     20146     20149     20148     20146     20149     20150     20153     20154
     20150     20153     20155     20150     20153     20156     20151     20150     20152
     20151     20150     20153     20152     20150     20153     20153     20156     20157
     20153     20156     20158     20153     20156     20159     20154     20153     20155
     20154     20153     20156     20155     20153     20156     20156     20159     20160
     20156     20159     20161     20156     20159     20165     20157     20156     20158
     20157     20156     20159     20158     20156     20159     20159     20161     20162
     20159     20161     20163     20159     20161     20164     20159     20165     20166
     20159     20165     20167     20159     20165     20168     20160     20159     20161
     20160     20159     20165     20161     20159     20165     20162     20161     20163
     20162     20161     20164     20163     20161     20164     20166     20165     20167
     20166     20165     20168     20167     20165     20168     20169     20173     20174
     20169     20173     20175     20169     20173     20176     20170     20169     20171
     20170     20169     20172     20170     20169     20173     20171     20169     20172
     20171     20169     20173     20172     20169     20173     20173     20176     20177
     20173     20176     20178     20173     20176     20182     20174     20173     20175
     20174     20173     20176     20175     20173     20176     20176     20182     20179
     20177     20176     20178     20177     20176     20182     20178     20176     20182
     20179     20183     20184     20180     20179     20181     20180     20179     20182
     20180     20179     20183     20181     20179     20182     20181     20179     20183
     20182     20179     20183     20183     20184     20185     20183     20184     20186
     20183     20184     20187     20184     20187     20188     20184     20187     20189
     20184     20187     20195     20185     20184     20186     20185     20184     20187
     20186     20184     20187     20187     20189     20190     20187     20195     20196
     20187     20195     20197     20187     20195     20198     20188     20187     20189
     20188     20187     20195     20189     20187     20195     20189     20190     20191
     20189     20190     20192     20190     20192     20193     20190     20192     20194
     20190     20192     20204     20191     20190     20192     20192     20204     20205
     20192     20204     20206     20192     20204     20207     20193     20192     20194
     20193     20192     20204     20194     20192     20204     20195     20198     20199
     20196     20195     20197     20196     20195     20198     20197     20195     20198
     20198     20199     20200     20198     20199     20201     20199     20201     20202
     20199     20201     20203     20199     20201     20251     20200     20199     20201
     20201     20251     20252     20201     20251     20253     20201     20251     20254
     20202     20201     20203     20202     20201     20251     20203     20201     20251
     20204     20207     20208     20204     20207     20209     20204     20207     20210
     20205     20204     20206     20205     20204     20207     20206     20204     20207
     20207     20210     20211     20207     20210     20212     20208     20207     20209
     20208     20207     20210     20209     20207     20210     20210     20212     20213
     20210     20212     20214     20211     20210     20212     20212     20214     20215
     20212     20214     20216     20212     20214     20217     20213     20212     20214
     20214     20217     20218     20214     20217     20219     20215     20214     20216
     20215     20214     20217     20216     20214     20217     20217     20219     20220
     20217     20219     20221     20218     20217     20219     20219     20221     20222
     20219     20221     20223     20219     20221     20224     20220     20219     20221
     20221     20224     20225     20221     20224     20226     20222     20221     20223
     20222     20221     20224     20223     20221     20224     20224     20226     20227
     20224     20226     20228     20225     20224     20226     20226     20228     20229
     20226     20228     20230     20226     20228     20231     20227     20226     20228
     20228     20231     20232     20228     20231     20233     20229     20228     20230
     20229     20228     20231     20230     20228     20231     20231     20233     20234
     20231     20233     20235     20232     20231     20233     20233     20235     20236
     20233     20235     20237     20233     20235     20238     20234     20233     20235
     20235     20238     20239     20235     20238     20240     20235     20238     20241
     20236     20235     20237     20236     20235     20238     20237     20235     20238
     20238     20241     20242     20238     20241     20243     20238     20241     20244
     20239     20238     20240     20239     20238     20241     20240     20238     20241
     20241     20244     20245     20241     20244     20246     20241     20244     20247
     20242     20241     20243     20242     20241     20244     20243     20241     20244
     20244     20247     20248     20244     20247     20249     20244     20247     20250
     20245     20244     20246     20245     20244     20247     20246     20244     20247
     20248     20247     20249     20248     20247     20250     20249     20247     20250
     20251     20254     20255     20251     20254     20256     20251     20254     20257
     20252     20251     20253     20252     20251     20254     20253     20251     20254
     20254     20257     20258     20254     20257     20259     20254     20257     20260
     20255     20254     20256     20255     20254     20257     20256     20254     20257
     20257     20260     20261     20257     20260     20262     20257     20260     20263
     20258     20257     20259     20258     20257     20260     20259     20257     20260
     20260     20263     20264     20260     20263     20265     20260     20263     20266
     20261     20260     20262     20261     20260     20263     20262     20260     20263
     20263     20266     20267     20263     20266     20268     20263     20266     20269
     20264     20263     20265     20264     20263     20266     20265     20263     20266
     20266     20269     20270     20266     20269     20271     20266     20269     20272
     20267     20266     20268     20267     20266     20269     20268     20266     20269
     20269     20272     20273     20269     20272     20274     20269     20272     20275
     20270     20269     20271     20270     20269     20272     20271     20269     20272
     20272     20275     20276     20272     20275     20277     20272     20275     20278
     20273     20272     20274     20273     20272     20275     20274     20272     20275
     20275     20278     20279     20275     20278     20280     20275     20278     20281
     20276     20275     20277     20276     20275     20278     20277     20275     20278
     20278     20281     20282     20278     20281     20283     20278     20281     20284
     20279     20278     20280     20279     20278     20281     20280     20278     20281
     20281     20284     20285     20281     20284     20286     20281     20284     20287
     20282     20281     20283     20282     20281     20284     20283     20281     20284
     20284     20287     20288     20284     20287     20289     20284     20287     20290
     20285     20284     20286     20285     20284     20287     20286     20284     20287
     20287     20290     20291     20287     20290     20292     20287     20290     20293
     20288     20287     20289     20288     20287     20290     20289     20287     20290
     20290     20293     20294     20290     20293     20295     20290     20293     20296
     20291     20290     20292     20291     20290     20293     20292     20290     20293
     20293     20296     20297     20293     20296     20298     20293     20296     20299
     20294     20293     20295     20294     20293     20296     20295     20293     20296
     20297     20296     20298     20297     20296     20299     20298     20296     20299
     20300     20302     20303     20300     20304     20305     20300     20304     20306
     20300     20304     20307     20300     20346     20343     20300     20346     20347
     20300     20346     20348     20301     20300     20302     20301     20300     20304
     20301     20300     20346     20302     20300     20304     20302     20300     20346
     20304     20300     20346     20304     20307     20308     20304     20307     20338
     20305     20304     20306     20305     20304     20307     20306     20304     20307
     20307     20308     20309     20307     20308     20310     20307     20338     20336
     20307     20338     20339     20307     20338     20343     20308     20307     20338
     20308     20310     20311     20308     20310     20312     20308     20310     20313
     20309     20308     20310     20310     20313     20314     20310     20313     20315
     20310     20313     20336     20311     20310     20312     20311     20310     20313
     20312     20310     20313     20313     20315     20316     20313     20315     20317
     20313     20315     20325     20313     20336     20333     20313     20336     20337
     20313     20336     20338     20314     20313     20315     20314     20313     20336
     20315     20313     20336     20315     20317     20318     20315     20317     20319
     20315     20317     20320     20315     20325     20323     20315     20325     20326
     20315     20325     20330     20316     20315     20317     20316     20315     20325
     20317     20315     20325     20317     20320     20321     20317     20320     20322
     20317     20320     20323     20318     20317     20319     20318     20317     20320
     20319     20317     20320     20320     20323     20324     20320     20323     20325
     20320     20323     20349     20321     20320     20322     20321     20320     20323
     20322     20320     20323     20323     20325     20326     20323     20325     20330
     20323     20349     20350     20323     20349     20351     20323     20349     20355
     20324     20323     20325     20324     20323     20349     20325     20323     20349
     20325     20326     20327     20325     20326     20328     20325     20326     20329
     20325     20330     20331     20325     20330     20332     20325     20330     20333
     20326     20325     20330     20327     20326     20328     20327     20326     20329
     20328     20326     20329     20330     20333     20334     20330     20333     20335
     20330     20333     20336     20331     20330     20332     20331     20330     20333
     20332     20330     20333     20333     20336     20337     20333     20336     20338
     20334     20333     20335     20334     20333     20336     20335     20333     20336
     20336     20338     20339     20336     20338     20343     20337     20336     20338
     20338     20339     20340     20338     20339     20341     20338     20339     20342
     20338     20343     20344     20338     20343     20345     20338     20343     20346
     20339     20338     20343     20340     20339     20341     20340     20339     20342
     20341     20339     20342     20343     20346     20347     20343     20346     20348
     20344     20343     20345     20344     20343     20346     20345     20343     20346
     20347     20346     20348     20349     20351     20352     20349     20351     20353
     20349     20351     20354     20349     20355     20356     20349     20355     20357
     20349     20355     20358     20350     20349     20351     20350     20349     20355
     20351     20349     20355     20352     20351     20353     20352     20351     20354
     20353     20351     20354     20355     20358     20359     20355     20358     20360
     20355     20358     20361     20356     20355     20357     20356     20355     20358
     20357     20355     20358     20358     20361     20362     20358     20361     20363
     20358     20361     20364     20359     20358     20360     20359     20358     20361
     20360     20358     20361     20361     20364     20365     20361     20364     20366
     20361     20364     20370     20362     20361     20363     20362     20361     20364
     20363     20361     20364     20364     20366     20367     20364     20366     20368
     20364     20366     20369     20364     20370     20371     20364     20370     20372
     20364     20370     20373     20365     20364     20366     20365     20364     20370
     20366     20364     20370     20367     20366     20368     20367     20366     20369
     20368     20366     20369     20371     20370     20372     20371     20370     20373
     20372     20370     20373     20374     20375     20376     20374     20375     20377
     20374     20375     20378     20374     20379     20380     20374     20379     20381
     20374     20379     20382     20374     20383     20384     20374     20383     20385
     20374     20383     20386     20374     20387     20388     20374     20387     20389
     20374     20387     20390     20375     20374     20379     20375     20374     20383
     20375     20374     20387     20376     20375     20377     20376     20375     20378
     20377     20375     20378     20379     20374     20383     20379     20374     20387
     20380     20379     20381     20380     20379     20382     20381     20379     20382
     20383     20374     20387     20384     20383     20385     20384     20383     20386
     20385     20383     20386     20387     20390     20391     20387     20390     20392
     20387     20390     20397     20388     20387     20389     20388     20387     20390
     20389     20387     20390     20390     20397     20393     20391     20390     20392
     20391     20390     20397     20392     20390     20397     20393     20396     20398
     20394     20393     20395     20394     20393     20396     20394     20393     20397
     20395     20393     20396     20395     20393     20397     20396     20393     20397
     20396     20398     20399     20396     20398     20400     20396     20398     20403
     20398     20403     20401     20398     20403     20404     20398     20403     20405
     20399     20398     20400     20399     20398     20403     20400     20398     20403
     20401     20403     20404     20401     20403     20405     20401     20453     20454
     20401     20453     20455     20402     20401     20403     20402     20401     20453
     20403     20401     20453     20403     20405     20406     20403     20405     20407
     20403     20405     20409     20404     20403     20405     20405     20407     20408
     20405     20409     20410     20405     20409     20411     20406     20405     20407
     20406     20405     20409     20407     20405     20409     20409     20411     20412
     20409     20411     20413     20410     20409     20411     20411     20413     20414
     20411     20413     20415     20411     20413     20416     20412     20411     20413
     20413     20416     20417     20413     20416     20418     20413     20416     20419
     20414     20413     20415     20414     20413     20416     20415     20413     20416
     20416     20419     20420     20416     20419     20421     20416     20419     20422
     20417     20416     20418     20417     20416     20419     20418     20416     20419
     20419     20422     20423     20419     20422     20424     20419     20422     20425
     20420     20419     20421     20420     20419     20422     20421     20419     20422
     20422     20425     20426     20422     20425     20427     20422     20425     20428
     20423     20422     20424     20423     20422     20425     20424     20422     20425
     20425     20428     20429     20425     20428     20430     20425     20428     20431
     20426     20425     20427     20426     20425     20428     20427     20425     20428
     20428     20431     20432     20428     20431     20433     20428     20431     20434
     20429     20428     20430     20429     20428     20431     20430     20428     20431
     20431     20434     20435     20431     20434     20436     20431     20434     20437
     20432     20431     20433     20432     20431     20434     20433     20431     20434
     20434     20437     20438     20434     20437     20439     20434     20437     20440
     20435     20434     20436     20435     20434     20437     20436     20434     20437
     20437     20440     20441     20437     20440     20442     20437     20440     20443
     20438     20437     20439     20438     20437     20440     20439     20437     20440
     20440     20443     20444     20440     20443     20445     20440     20443     20446
     20441     20440     20442     20441     20440     20443     20442     20440     20443
     20443     20446     20447     20443     20446     20448     20443     20446     20449
     20444     20443     20445     20444     20443     20446     20445     20443     20446
     20446     20449     20450     20446     20449     20451     20446     20449     20452
     20447     20446     20448     20447     20446     20449     20448     20446     20449
     20450     20449     20451     20450     20449     20452     20451     20449     20452
     20453     20455     20456     20453     20455     20457     20453     20455     20458
     20454     20453     20455     20455     20458     20459     20455     20458     20460
     20455     20458     20461     20456     20455     20457     20456     20455     20458
     20457     20455     20458     20458     20461     20462     20458     20461     20463
     20458     20461     20464     20459     20458     20460     20459     20458     20461
     20460     20458     20461     20461     20464     20465     20461     20464     20466
     20461     20464     20467     20462     20461     20463     20462     20461     20464
     20463     20461     20464     20464     20467     20468     20464     20467     20469
     20464     20467     20470     20465     20464     20466     20465     20464     20467
     20466     20464     20467     20467     20470     20471     20467     20470     20472
     20467     20470     20473     20468     20467     20469     20468     20467     20470
     20469     20467     20470     20470     20473     20474     20470     20473     20475
     20470     20473     20476     20471     20470     20472     20471     20470     20473
     20472     20470     20473     20473     20476     20477     20473     20476     20478
     20474     20473     20475     20474     20473     20476     20475     20473     20476
     20476     20478     20479     20476     20478     20480     20477     20476     20478
     20478     20480     20481     20478     20480     20482     20478     20480     20483
     20479     20478     20480     20480     20483     20484     20480     20483     20485
     20480     20483     20486     20481     20480     20482     20481     20480     20483
     20482     20480     20483     20483     20486     20487     20483     20486     20488
     20483     20486     20489     20484     20483     20485     20484     20483     20486
     20485     20483     20486     20486     20489     20490     20486     20489     20491
     20486     20489     20492     20487     20486     20488     20487     20486     20489
     20488     20486     20489     20489     20492     20493     20489     20492     20494
     20489     20492     20495     20490     20489     20491     20490     20489     20492
     20491     20489     20492     20492     20495     20496     20492     20495     20497
     20492     20495     20498     20493     20492     20494     20493     20492     20495
     20494     20492     20495     20495     20498     20499     20495     20498     20500
     20495     20498     20501     20496     20495     20497     20496     20495     20498
     20497     20495     20498     20498     20501     20502     20498     20501     20503
     20498     20501     20504     20499     20498     20500     20499     20498     20501
     20500     20498     20501     20502     20501     20503     20502     20501     20504
     20503     20501     20504     20505     20506     20507     20505     20506     20508
     20505     20506     20509     20505     20510     20511     20505     20510     20512
     20505     20510     20513     20505     20514     20515     20505     20514     20516
     20505     20514     20517     20505     20518     20519     20505     20518     20520
     20505     20518     20521     20506     20505     20510     20506     20505     20514
     20506     20505     20518     20507     20506     20508     20507     20506     20509
     20508     20506     20509     20510     20505     20514     20510     20505     20518
     20511     20510     20512     20511     20510     20513     20512     20510     20513
     20514     20505     20518     20515     20514     20516     20515     20514     20517
     20516     20514     20517     20518     20521     20522     20518     20521     20523
     20518     20521     20528     20519     20518     20520     20519     20518     20521
     20520     20518     20521     20521     20528     20524     20522     20521     20523
     20522     20521     20528     20523     20521     20528     20524     20527     20529
     20525     20524     20526     20525     20524     20527     20525     20524     20528
     20526     20524     20527     20526     20524     20528     20527     20524     20528
     20527     20529     20530     20527     20529     20531     20527     20529     20534
     20529     20534     20532     20529     20534     20535     20529     20534     20536
     20530     20529     20531     20530     20529     20534     20531     20529     20534
     20532     20534     20535     20532     20534     20536     20532     20584     20585
     20532     20584     20586     20533     20532     20534     20533     20532     20584
     20534     20532     20584     20534     20536     20537     20534     20536     20538
     20534     20536     20540     20535     20534     20536     20536     20538     20539
     20536     20540     20541     20536     20540     20542     20537     20536     20538
     20537     20536     20540     20538     20536     20540     20540     20542     20543
     20540     20542     20544     20541     20540     20542     20542     20544     20545
     20542     20544     20546     20542     20544     20547     20543     20542     20544
     20544     20547     20548     20544     20547     20549     20544     20547     20550
     20545     20544     20546     20545     20544     20547     20546     20544     20547
     20547     20550     20551     20547     20550     20552     20547     20550     20553
     20548     20547     20549     20548     20547     20550     20549     20547     20550
     20550     20553     20554     20550     20553     20555     20550     20553     20556
     20551     20550     20552     20551     20550     20553     20552     20550     20553
     20553     20556     20557     20553     20556     20558     20553     20556     20559
     20554     20553     20555     20554     20553     20556     20555     20553     20556
     20556     20559     20560     20556     20559     20561     20556     20559     20562
     20557     20556     20558     20557     20556     20559     20558     20556     20559
     20559     20562     20563     20559     20562     20564     20559     20562     20565
     20560     20559     20561     20560     20559     20562     20561     20559     20562
     20562     20565     20566     20562     20565     20567     20562     20565     20568
     20563     20562     20564     20563     20562     20565     20564     20562     20565
     20565     20568     20569     20565     20568     20570     20565     20568     20571
     20566     20565     20567     20566     20565     20568     20567     20565     20568
     20568     20571     20572     20568     20571     20573     20568     20571     20574
     20569     20568     20570     20569     20568     20571     20570     20568     20571
     20571     20574     20575     20571     20574     20576     20571     20574     20577
     20572     20571     20573     20572     20571     20574     20573     20571     20574
     20574     20577     20578     20574     20577     20579     20574     20577     20580
     20575     20574     20576     20575     20574     20577     20576     20574     20577
     20577     20580     20581     20577     20580     20582     20577     20580     20583
     20578     20577     20579     20578     20577     20580     20579     20577     20580
     20581     20580     20582     20581     20580     20583     20582     20580     20583
     20584     20586     20587     20584     20586     20588     20584     20586     20589
     20585     20584     20586     20586     20589     20590     20586     20589     20591
     20586     20589     20592     20587     20586     20588     20587     20586     20589
     20588     20586     20589     20589     20592     20593     20589     20592     20594
     20589     20592     20595     20590     20589     20591     20590     20589     20592
     20591     20589     20592     20592     20595     20596     20592     20595     20597
     20592     20595     20598     20593     20592     20594     20593     20592     20595
     20594     20592     20595     20595     20598     20599     20595     20598     20600
     20595     20598     20601     20596     20595     20597     20596     20595     20598
     20597     20595     20598     20598     20601     20602     20598     20601     20603
     20598     20601     20604     20599     20598     20600     20599     20598     20601
     20600     20598     20601     20601     20604     20605     20601     20604     20606
     20601     20604     20607     20602     20601     20603     20602     20601     20604
     20603     20601     20604     20604     20607     20608     20604     20607     20609
     20605     20604     20606     20605     20604     20607     20606     20604     20607
     20607     20609     20610     20607     20609     20611     20608     20607     20609
     20609     20611     20612     20609     20611     20613     20609     20611     20614
     20610     20609     20611     20611     20614     20615     20611     20614     20616
     20611     20614     20617     20612     20611     20613     20612     20611     20614
     20613     20611     20614     20614     20617     20618     20614     20617     20619
     20614     20617     20620     20615     20614     20616     20615     20614     20617
     20616     20614     20617     20617     20620     20621     20617     20620     20622
     20617     20620     20623     20618     20617     20619     20618     20617     20620
     20619     20617     20620     20620     20623     20624     20620     20623     20625
     20620     20623     20626     20621     20620     20622     20621     20620     20623
     20622     20620     20623     20623     20626     20627     20623     20626     20628
     20623     20626     20629     20624     20623     20625     20624     20623     20626
     20625     20623     20626     20626     20629     20630     20626     20629     20631
     20626     20629     20632     20627     20626     20628     20627     20626     20629
     20628     20626     20629     20629     20632     20633     20629     20632     20634
     20629     20632     20635     20630     20629     20631     20630     20629     20632
     20631     20629     20632     20633     20632     20634     20633     20632     20635
     20634     20632     20635     20636     20638     20639     20636     20640     20641
     20636     20640     20642     20636     20640     20643     20636     20682     20679
     20636     20682     20683     20636     20682     20684     20637     20636     20638
     20637     20636     20640     20637     20636     20682     20638     20636     20640
     20638     20636     20682     20640     20636     20682     20640     20643     20644
     20640     20643     20674     20641     20640     20642     20641     20640     20643
     20642     20640     20643     20643     20644     20645     20643     20644     20646
     20643     20674     20672     20643     20674     20675     20643     20674     20679
     20644     20643     20674     20644     20646     20647     20644     20646     20648
     20644     20646     20649     20645     20644     20646     20646     20649     20650
     20646     20649     20651     20646     20649     20672     20647     20646     20648
     20647     20646     20649     20648     20646     20649     20649     20651     20652
     20649     20651     20653     20649     20651     20661     20649     20672     20669
     20649     20672     20673     20649     20672     20674     20650     20649     20651
     20650     20649     20672     20651     20649     20672     20651     20653     20654
     20651     20653     20655     20651     20653     20656     20651     20661     20659
     20651     20661     20662     20651     20661     20666     20652     20651     20653
     20652     20651     20661     20653     20651     20661     20653     20656     20657
     20653     20656     20658     20653     20656     20659     20654     20653     20655
     20654     20653     20656     20655     20653     20656     20656     20659     20660
     20656     20659     20661     20656     20659     20685     20657     20656     20658
     20657     20656     20659     20658     20656     20659     20659     20661     20662
     20659     20661     20666     20659     20685     20686     20659     20685     20687
     20659     20685     20691     20660     20659     20661     20660     20659     20685
     20661     20659     20685     20661     20662     20663     20661     20662     20664
     20661     20662     20665     20661     20666     20667     20661     20666     20668
     20661     20666     20669     20662     20661     20666     20663     20662     20664
     20663     20662     20665     20664     20662     20665     20666     20669     20670
     20666     20669     20671     20666     20669     20672     20667     20666     20668
     20667     20666     20669     20668     20666     20669     20669     20672     20673
     20669     20672     20674     20670     20669     20671     20670     20669     20672
     20671     20669     20672     20672     20674     20675     20672     20674     20679
     20673     20672     20674     20674     20675     20676     20674     20675     20677
     20674     20675     20678     20674     20679     20680     20674     20679     20681
     20674     20679     20682     20675     20674     20679     20676     20675     20677
     20676     20675     20678     20677     20675     20678     20679     20682     20683
     20679     20682     20684     20680     20679     20681     20680     20679     20682
     20681     20679     20682     20683     20682     20684     20685     20687     20688
     20685     20687     20689     20685     20687     20690     20685     20691     20692
     20685     20691     20693     20685     20691     20694     20686     20685     20687
     20686     20685     20691     20687     20685     20691     20688     20687     20689
     20688     20687     20690     20689     20687     20690     20691     20694     20695
     20691     20694     20696     20691     20694     20697     20692     20691     20693
     20692     20691     20694     20693     20691     20694     20694     20697     20698
     20694     20697     20699     20694     20697     20700     20695     20694     20696
     20695     20694     20697     20696     20694     20697     20697     20700     20701
     20697     20700     20702     20697     20700     20706     20698     20697     20699
     20698     20697     20700     20699     20697     20700     20700     20702     20703
     20700     20702     20704     20700     20702     20705     20700     20706     20707
     20700     20706     20708     20700     20706     20709     20701     20700     20702
     20701     20700     20706     20702     20700     20706     20703     20702     20704
     20703     20702     20705     20704     20702     20705     20707     20706     20708
     20707     20706     20709     20708     20706     20709     20710     20712     20713
     20710     20714     20715     20710     20714     20716     20710     20714     20717
     20710     20756     20753     20710     20756     20757     20710     20756     20758
     20711     20710     20712     20711     20710     20714     20711     20710     20756
     20712     20710     20714     20712     20710     20756     20714     20710     20756
     20714     20717     20718     20714     20717     20748     20715     20714     20716
     20715     20714     20717     20716     20714     20717     20717     20718     20719
     20717     20718     20720     20717     20748     20746     20717     20748     20749
     20717     20748     20753     20718     20717     20748     20718     20720     20721
     20718     20720     20722     20718     20720     20723     20719     20718     20720
     20720     20723     20724     20720     20723     20725     20720     20723     20746
     20721     20720     20722     20721     20720     20723     20722     20720     20723
     20723     20725     20726     20723     20725     20727     20723     20725     20735
     20723     20746     20743     20723     20746     20747     20723     20746     20748
     20724     20723     20725     20724     20723     20746     20725     20723     20746
     20725     20727     20728     20725     20727     20729     20725     20727     20730
     20725     20735     20733     20725     20735     20736     20725     20735     20740
     20726     20725     20727     20726     20725     20735     20727     20725     20735
     20727     20730     20731     20727     20730     20732     20727     20730     20733
     20728     20727     20729     20728     20727     20730     20729     20727     20730
     20730     20733     20734     20730     20733     20735     20730     20733     20759
     20731     20730     20732     20731     20730     20733     20732     20730     20733
     20733     20735     20736     20733     20735     20740     20733     20759     20760
     20733     20759     20761     20733     20759     20765     20734     20733     20735
     20734     20733     20759     20735     20733     20759     20735     20736     20737
     20735     20736     20738     20735     20736     20739     20735     20740     20741
     20735     20740     20742     20735     20740     20743     20736     20735     20740
     20737     20736     20738     20737     20736     20739     20738     20736     20739
     20740     20743     20744     20740     20743     20745     20740     20743     20746
     20741     20740     20742     20741     20740     20743     20742     20740     20743
     20743     20746     20747     20743     20746     20748     20744     20743     20745
     20744     20743     20746     20745     20743     20746     20746     20748     20749
     20746     20748     20753     20747     20746     20748     20748     20749     20750
     20748     20749     20751     20748     20749     20752     20748     20753     20754
     20748     20753     20755     20748     20753     20756     20749     20748     20753
     20750     20749     20751     20750     20749     20752     20751     20749     20752
     20753     20756     20757     20753     20756     20758     20754     20753     20755
     20754     20753     20756     20755     20753     20756     20757     20756     20758
     20759     20761     20762     20759     20761     20763     20759     20761     20764
     20759     20765     20766     20759     20765     20767     20759     20765     20768
     20760     20759     20761     20760     20759     20765     20761     20759     20765
     20762     20761     20763     20762     20761     20764     20763     20761     20764
     20765     20768     20769     20765     20768     20770     20765     20768     20771
     20766     20765     20767     20766     20765     20768     20767     20765     20768
     20768     20771     20772     20768     20771     20773     20768     20771     20774
     20769     20768     20770     20769     20768     20771     20770     20768     20771
     20771     20774     20775     20771     20774     20776     20771     20774     20780
     20772     20771     20773     20772     20771     20774     20773     20771     20774
     20774     20776     20777     20774     20776     20778     20774     20776     20779
     20774     20780     20781     20774     20780     20782     20774     20780     20783
     20775     20774     20776     20775     20774     20780     20776     20774     20780
     20777     20776     20778     20777     20776     20779     20778     20776     20779
     20781     20780     20782     20781     20780     20783     20782     20780     20783
     20784     20788     20789     20784     20788     20790     20784     20788     20791
     20785     20784     20786     20785     20784     20787     20785     20784     20788
     20786     20784     20787     20786     20784     20788     20787     20784     20788
     20788     20791     20792     20788     20791     20793     20788     20791     20797
     20789     20788     20790     20789     20788     20791     20790     20788     20791
     20791     20797     20794     20792     20791     20793     20792     20791     20797
     20793     20791     20797     20794     20798     20799     20795     20794     20796
     20795     20794     20797     20795     20794     20798     20796     20794     20797
     20796     20794     20798     20797     20794     20798     20798     20799     20800
     20798     20799     20801     20798     20799     20802     20799     20802     20803
     20799     20802     20804     20799     20802     20810     20800     20799     20801
     20800     20799     20802     20801     20799     20802     20802     20804     20805
     20802     20810     20811     20802     20810     20812     20802     20810     20813
     20803     20802     20804     20803     20802     20810     20804     20802     20810
     20804     20805     20806     20804     20805     20807     20805     20807     20808
     20805     20807     20809     20805     20807     20819     20806     20805     20807
     20807     20819     20820     20807     20819     20821     20807     20819     20822
     20808     20807     20809     20808     20807     20819     20809     20807     20819
     20810     20813     20814     20811     20810     20812     20811     20810     20813
     20812     20810     20813     20813     20814     20815     20813     20814     20816
     20814     20816     20817     20814     20816     20818     20814     20816     20866
     20815     20814     20816     20816     20866     20867     20816     20866     20868
     20816     20866     20869     20817     20816     20818     20817     20816     20866
     20818     20816     20866     20819     20822     20823     20819     20822     20824
     20819     20822     20825     20820     20819     20821     20820     20819     20822
     20821     20819     20822     20822     20825     20826     20822     20825     20827
     20823     20822     20824     20823     20822     20825     20824     20822     20825
     20825     20827     20828     20825     20827     20829     20826     20825     20827
     20827     20829     20830     20827     20829     20831     20827     20829     20832
     20828     20827     20829     20829     20832     20833     20829     20832     20834
     20830     20829     20831     20830     20829     20832     20831     20829     20832
     20832     20834     20835     20832     20834     20836     20833     20832     20834
     20834     20836     20837     20834     20836     20838     20834     20836     20839
     20835     20834     20836     20836     20839     20840     20836     20839     20841
     20837     20836     20838     20837     20836     20839     20838     20836     20839
     20839     20841     20842     20839     20841     20843     20840     20839     20841
     20841     20843     20844     20841     20843     20845     20841     20843     20846
     20842     20841     20843     20843     20846     20847     20843     20846     20848
     20844     20843     20845     20844     20843     20846     20845     20843     20846
     20846     20848     20849     20846     20848     20850     20847     20846     20848
     20848     20850     20851     20848     20850     20852     20848     20850     20853
     20849     20848     20850     20850     20853     20854     20850     20853     20855
     20850     20853     20856     20851     20850     20852     20851     20850     20853
     20852     20850     20853     20853     20856     20857     20853     20856     20858
     20853     20856     20859     20854     20853     20855     20854     20853     20856
     20855     20853     20856     20856     20859     20860     20856     20859     20861
     20856     20859     20862     20857     20856     20858     20857     20856     20859
     20858     20856     20859     20859     20862     20863     20859     20862     20864
     20859     20862     20865     20860     20859     20861     20860     20859     20862
     20861     20859     20862     20863     20862     20864     20863     20862     20865
     20864     20862     20865     20866     20869     20870     20866     20869     20871
     20866     20869     20872     20867     20866     20868     20867     20866     20869
     20868     20866     20869     20869     20872     20873     20869     20872     20874
     20869     20872     20875     20870     20869     20871     20870     20869     20872
     20871     20869     20872     20872     20875     20876     20872     20875     20877
     20872     20875     20878     20873     20872     20874     20873     20872     20875
     20874     20872     20875     20875     20878     20879     20875     20878     20880
     20875     20878     20881     20876     20875     20877     20876     20875     20878
     20877     20875     20878     20878     20881     20882     20878     20881     20883
     20878     20881     20884     20879     20878     20880     20879     20878     20881
     20880     20878     20881     20881     20884     20885     20881     20884     20886
     20881     20884     20887     20882     20881     20883     20882     20881     20884
     20883     20881     20884     20884     20887     20888     20884     20887     20889
     20884     20887     20890     20885     20884     20886     20885     20884     20887
     20886     20884     20887     20887     20890     20891     20887     20890     20892
     20887     20890     20893     20888     20887     20889     20888     20887     20890
     20889     20887     20890     20890     20893     20894     20890     20893     20895
     20890     20893     20896     20891     20890     20892     20891     20890     20893
     20892     20890     20893     20893     20896     20897     20893     20896     20898
     20893     20896     20899     20894     20893     20895     20894     20893     20896
     20895     20893     20896     20896     20899     20900     20896     20899     20901
     20896     20899     20902     20897     20896     20898     20897     20896     20899
     20898     20896     20899     20899     20902     20903     20899     20902     20904
     20899     20902     20905     20900     20899     20901     20900     20899     20902
     20901     20899     20902     20902     20905     20906     20902     20905     20907
     20902     20905     20908     20903     20902     20904     20903     20902     20905
     20904     20902     20905     20905     20908     20909     20905     20908     20910
     20905     20908     20911     20906     20905     20907     20906     20905     20908
     20907     20905     20908     20908     20911     20912     20908     20911     20913
     20908     20911     20914     20909     20908     20910     20909     20908     20911
     20910     20908     20911     20912     20911     20913     20912     20911     20914
     20913     20911     20914     20915     20916     20917     20915     20916     20918
     20915     20916     20919     20915     20920     20921     20915     20920     20922
     20915     20920     20923     20915     20924     20925     20915     20924     20926
     20915     20924     20927     20915     20928     20929     20915     20928     20930
     20915     20928     20931     20916     20915     20920     20916     20915     20924
     20916     20915     20928     20917     20916     20918     20917     20916     20919
     20918     20916     20919     20920     20915     20924     20920     20915     20928
     20921     20920     20922     20921     20920     20923     20922     20920     20923
     20924     20915     20928     20925     20924     20926     20925     20924     20927
     20926     20924     20927     20928     20931     20932     20928     20931     20933
     20928     20931     20937     20929     20928     20930     20929     20928     20931
     20930     20928     20931     20931     20937     20934     20932     20931     20933
     20932     20931     20937     20933     20931     20937     20934     20938     20939
     20935     20934     20936     20935     20934     20937     20935     20934     20938
     20936     20934     20937     20936     20934     20938     20937     20934     20938
     20938     20939     20940     20938     20939     20941     20938     20939     20942
     20939     20942     20943     20939     20942     20944     20939     20942     20950
     20940     20939     20941     20940     20939     20942     20941     20939     20942
     20942     20944     20945     20942     20950     20951     20942     20950     20952
     20942     20950     20953     20943     20942     20944     20943     20942     20950
     20944     20942     20950     20944     20945     20946     20944     20945     20947
     20945     20947     20948     20945     20947     20949     20945     20947     20959
     20946     20945     20947     20947     20959     20960     20947     20959     20961
     20947     20959     20962     20948     20947     20949     20948     20947     20959
     20949     20947     20959     20950     20953     20954     20951     20950     20952
     20951     20950     20953     20952     20950     20953     20953     20954     20955
     20953     20954     20956     20954     20956     20957     20954     20956     20958
     20954     20956     21004     20955     20954     20956     20956     21004     21005
     20956     21004     21006     20956     21004     21007     20957     20956     20958
     20957     20956     21004     20958     20956     21004     20959     20962     20963
     20959     20962     20964     20959     20962     20965     20960     20959     20961
     20960     20959     20962     20961     20959     20962     20962     20965     20966
     20962     20965     20967     20962     20965     20968     20963     20962     20964
     20963     20962     20965     20964     20962     20965     20965     20968     20969
     20965     20968     20970     20965     20968     20971     20966     20965     20967
     20966     20965     20968     20967     20965     20968     20968     20971     20972
     20968     20971     20973     20968     20971     20974     20969     20968     20970
     20969     20968     20971     20970     20968     20971     20971     20974     20975
     20971     20974     20976     20971     20974     20977     20972     20971     20973
     20972     20971     20974     20973     20971     20974     20974     20977     20978
     20974     20977     20979     20975     20974     20976     20975     20974     20977
     20976     20974     20977     20977     20979     20980     20977     20979     20981
     20978     20977     20979     20979     20981     20982     20979     20981     20983
     20979     20981     20984     20980     20979     20981     20981     20984     20985
     20981     20984     20986     20982     20981     20983     20982     20981     20984
     20983     20981     20984     20984     20986     20987     20984     20986     20988
     20985     20984     20986     20986     20988     20989     20986     20988     20990
     20986     20988     20991     20987     20986     20988     20988     20991     20992
     20988     20991     20993     20988     20991     20994     20989     20988     20990
     20989     20988     20991     20990     20988     20991     20991     20994     20995
     20991     20994     20996     20991     20994     20997     20992     20991     20993
     20992     20991     20994     20993     20991     20994     20994     20997     20998
     20994     20997     20999     20994     20997     21000     20995     20994     20996
     20995     20994     20997     20996     20994     20997     20997     21000     21001
     20997     21000     21002     20997     21000     21003     20998     20997     20999
     20998     20997     21000     20999     20997     21000     21001     21000     21002
     21001     21000     21003     21002     21000     21003     21004     21007     21008
     21004     21007     21009     21004     21007     21010     21005     21004     21006
     21005     21004     21007     21006     21004     21007     21007     21010     21011
     21007     21010     21012     21007     21010     21013     21008     21007     21009
     21008     21007     21010     21009     21007     21010     21010     21013     21014
     21010     21013     21015     21010     21013     21016     21011     21010     21012
     21011     21010     21013     21012     21010     21013     21013     21016     21017
     21013     21016     21018     21013     21016     21019     21014     21013     21015
     21014     21013     21016     21015     21013     21016     21016     21019     21020
     21016     21019     21021     21016     21019     21022     21017     21016     21018
     21017     21016     21019     21018     21016     21019     21019     21022     21023
     21019     21022     21024     21019     21022     21025     21020     21019     21021
     21020     21019     21022     21021     21019     21022     21022     21025     21026
     21022     21025     21027     21022     21025     21028     21023     21022     21024
     21023     21022     21025     21024     21022     21025     21025     21028     21029
     21025     21028     21030     21025     21028     21031     21026     21025     21027
     21026     21025     21028     21027     21025     21028     21028     21031     21032
     21028     21031     21033     21028     21031     21034     21029     21028     21030
     21029     21028     21031     21030     21028     21031     21031     21034     21035
     21031     21034     21036     21031     21034     21037     21032     21031     21033
     21032     21031     21034     21033     21031     21034     21034     21037     21038
     21034     21037     21039     21034     21037     21040     21035     21034     21036
     21035     21034     21037     21036     21034     21037     21037     21040     21041
     21037     21040     21042     21037     21040     21043     21038     21037     21039
     21038     21037     21040     21039     21037     21040     21040     21043     21044
     21040     21043     21045     21040     21043     21046     21041     21040     21042
     21041     21040     21043     21042     21040     21043     21043     21046     21047
     21043     21046     21048     21043     21046     21049     21044     21043     21045
     21044     21043     21046     21045     21043     21046     21046     21049     21050
     21046     21049     21051     21046     21049     21052     21047     21046     21048
     21047     21046     21049     21048     21046     21049     21050     21049     21051
     21050     21049     21052     21051     21049     21052     21053     21054     21055
     21053     21054     21056     21053     21054     21057     21053     21058     21059
     21053     21058     21060     21053     21058     21061     21053     21062     21063
     21053     21062     21064     21053     21062     21065     21053     21066     21067
     21053     21066     21068     21053     21066     21069     21054     21053     21058
     21054     21053     21062     21054     21053     21066     21055     21054     21056
     21055     21054     21057     21056     21054     21057     21058     21053     21062
     21058     21053     21066     21059     21058     21060     21059     21058     21061
     21060     21058     21061     21062     21053     21066     21063     21062     21064
     21063     21062     21065     21064     21062     21065     21066     21069     21070
     21066     21069     21071     21066     21069     21076     21067     21066     21068
     21067     21066     21069     21068     21066     21069     21069     21076     21072
     21070     21069     21071     21070     21069     21076     21071     21069     21076
     21072     21075     21077     21073     21072     21074     21073     21072     21075
     21073     21072     21076     21074     21072     21075     21074     21072     21076
     21075     21072     21076     21075     21077     21078     21075     21077     21079
     21075     21077     21082     21077     21082     21080     21077     21082     21083
     21077     21082     21084     21078     21077     21079     21078     21077     21082
     21079     21077     21082     21080     21082     21083     21080     21082     21084
     21080     21132     21133     21080     21132     21134     21081     21080     21082
     21081     21080     21132     21082     21080     21132     21082     21084     21085
     21082     21084     21086     21082     21084     21088     21083     21082     21084
     21084     21086     21087     21084     21088     21089     21084     21088     21090
     21085     21084     21086     21085     21084     21088     21086     21084     21088
     21088     21090     21091     21088     21090     21092     21089     21088     21090
     21090     21092     21093     21090     21092     21094     21090     21092     21095
     21091     21090     21092     21092     21095     21096     21092     21095     21097
     21092     21095     21098     21093     21092     21094     21093     21092     21095
     21094     21092     21095     21095     21098     21099     21095     21098     21100
     21095     21098     21101     21096     21095     21097     21096     21095     21098
     21097     21095     21098     21098     21101     21102     21098     21101     21103
     21098     21101     21104     21099     21098     21100     21099     21098     21101
     21100     21098     21101     21101     21104     21105     21101     21104     21106
     21101     21104     21107     21102     21101     21103     21102     21101     21104
     21103     21101     21104     21104     21107     21108     21104     21107     21109
     21104     21107     21110     21105     21104     21106     21105     21104     21107
     21106     21104     21107     21107     21110     21111     21107     21110     21112
     21107     21110     21113     21108     21107     21109     21108     21107     21110
     21109     21107     21110     21110     21113     21114     21110     21113     21115
     21110     21113     21116     21111     21110     21112     21111     21110     21113
     21112     21110     21113     21113     21116     21117     21113     21116     21118
     21113     21116     21119     21114     21113     21115     21114     21113     21116
     21115     21113     21116     21116     21119     21120     21116     21119     21121
     21116     21119     21122     21117     21116     21118     21117     21116     21119
     21118     21116     21119     21119     21122     21123     21119     21122     21124
     21119     21122     21125     21120     21119     21121     21120     21119     21122
     21121     21119     21122     21122     21125     21126     21122     21125     21127
     21122     21125     21128     21123     21122     21124     21123     21122     21125
     21124     21122     21125     21125     21128     21129     21125     21128     21130
     21125     21128     21131     21126     21125     21127     21126     21125     21128
     21127     21125     21128     21129     21128     21130     21129     21128     21131
     21130     21128     21131     21132     21134     21135     21132     21134     21136
     21132     21134     21137     21133     21132     21134     21134     21137     21138
     21134     21137     21139     21134     21137     21140     21135     21134     21136
     21135     21134     21137     21136     21134     21137     21137     21140     21141
     21137     21140     21142     21137     21140     21143     21138     21137     21139
     21138     21137     21140     21139     21137     21140     21140     21143     21144
     21140     21143     21145     21140     21143     21146     21141     21140     21142
     21141     21140     21143     21142     21140     21143     21143     21146     21147
     21143     21146     21148     21143     21146     21149     21144     21143     21145
     21144     21143     21146     21145     21143     21146     21146     21149     21150
     21146     21149     21151     21146     21149     21152     21147     21146     21148
     21147     21146     21149     21148     21146     21149     21149     21152     21153
     21149     21152     21154     21149     21152     21155     21150     21149     21151
     21150     21149     21152     21151     21149     21152     21152     21155     21156
     21152     21155     21157     21153     21152     21154     21153     21152     21155
     21154     21152     21155     21155     21157     21158     21155     21157     21159
     21156     21155     21157     21157     21159     21160     21157     21159     21161
     21157     21159     21162     21158     21157     21159     21159     21162     21163
     21159     21162     21164     21159     21162     21165     21160     21159     21161
     21160     21159     21162     21161     21159     21162     21162     21165     21166
     21162     21165     21167     21162     21165     21168     21163     21162     21164
     21163     21162     21165     21164     21162     21165     21165     21168     21169
     21165     21168     21170     21165     21168     21171     21166     21165     21167
     21166     21165     21168     21167     21165     21168     21168     21171     21172
     21168     21171     21173     21168     21171     21174     21169     21168     21170
     21169     21168     21171     21170     21168     21171     21171     21174     21175
     21171     21174     21176     21171     21174     21177     21172     21171     21173
     21172     21171     21174     21173     21171     21174     21174     21177     21178
     21174     21177     21179     21174     21177     21180     21175     21174     21176
     21175     21174     21177     21176     21174     21177     21177     21180     21181
     21177     21180     21182     21177     21180     21183     21178     21177     21179
     21178     21177     21180     21179     21177     21180     21181     21180     21182
     21181     21180     21183     21182     21180     21183     21184     21186     21187
     21184     21188     21189     21184     21188     21190     21184     21188     21191
     21184     21230     21227     21184     21230     21231     21184     21230     21232
     21185     21184     21186     21185     21184     21188     21185     21184     21230
     21186     21184     21188     21186     21184     21230     21188     21184     21230
     21188     21191     21192     21188     21191     21222     21189     21188     21190
     21189     21188     21191     21190     21188     21191     21191     21192     21193
     21191     21192     21194     21191     21222     21220     21191     21222     21223
     21191     21222     21227     21192     21191     21222     21192     21194     21195
     21192     21194     21196     21192     21194     21197     21193     21192     21194
     21194     21197     21198     21194     21197     21199     21194     21197     21220
     21195     21194     21196     21195     21194     21197     21196     21194     21197
     21197     21199     21200     21197     21199     21201     21197     21199     21209
     21197     21220     21217     21197     21220     21221     21197     21220     21222
     21198     21197     21199     21198     21197     21220     21199     21197     21220
     21199     21201     21202     21199     21201     21203     21199     21201     21204
     21199     21209     21207     21199     21209     21210     21199     21209     21214
     21200     21199     21201     21200     21199     21209     21201     21199     21209
     21201     21204     21205     21201     21204     21206     21201     21204     21207
     21202     21201     21203     21202     21201     21204     21203     21201     21204
     21204     21207     21208     21204     21207     21209     21204     21207     21233
     21205     21204     21206     21205     21204     21207     21206     21204     21207
     21207     21209     21210     21207     21209     21214     21207     21233     21234
     21207     21233     21235     21207     21233     21239     21208     21207     21209
     21208     21207     21233     21209     21207     21233     21209     21210     21211
     21209     21210     21212     21209     21210     21213     21209     21214     21215
     21209     21214     21216     21209     21214     21217     21210     21209     21214
     21211     21210     21212     21211     21210     21213     21212     21210     21213
     21214     21217     21218     21214     21217     21219     21214     21217     21220
     21215     21214     21216     21215     21214     21217     21216     21214     21217
     21217     21220     21221     21217     21220     21222     21218     21217     21219
     21218     21217     21220     21219     21217     21220     21220     21222     21223
     21220     21222     21227     21221     21220     21222     21222     21223     21224
     21222     21223     21225     21222     21223     21226     21222     21227     21228
     21222     21227     21229     21222     21227     21230     21223     21222     21227
     21224     21223     21225     21224     21223     21226     21225     21223     21226
     21227     21230     21231     21227     21230     21232     21228     21227     21229
     21228     21227     21230     21229     21227     21230     21231     21230     21232
     21233     21235     21236     21233     21235     21237     21233     21235     21238
     21233     21239     21240     21233     21239     21241     21233     21239     21242
     21234     21233     21235     21234     21233     21239     21235     21233     21239
     21236     21235     21237     21236     21235     21238     21237     21235     21238
     21239     21242     21243     21239     21242     21244     21239     21242     21245
     21240     21239     21241     21240     21239     21242     21241     21239     21242
     21242     21245     21246     21242     21245     21247     21242     21245     21248
     21243     21242     21244     21243     21242     21245     21244     21242     21245
     21245     21248     21249     21245     21248     21250     21245     21248     21254
     21246     21245     21247     21246     21245     21248     21247     21245     21248
     21248     21250     21251     21248     21250     21252     21248     21250     21253
     21248     21254     21255     21248     21254     21256     21248     21254     21257
     21249     21248     21250     21249     21248     21254     21250     21248     21254
     21251     21250     21252     21251     21250     21253     21252     21250     21253
     21255     21254     21256     21255     21254     21257     21256     21254     21257
     21258     21262     21263     21258     21262     21264     21258     21262     21267
     21259     21258     21260     21259     21258     21261     21259     21258     21262
     21260     21258     21261     21260     21258     21262     21261     21258     21262
     21262     21264     21265     21262     21264     21266     21262     21267     21268
     21262     21267     21269     21262     21267     21273     21263     21262     21264
     21263     21262     21267     21264     21262     21267     21265     21264     21266
     21267     21273     21270     21268     21267     21269     21268     21267     21273
     21269     21267     21273     21270     21274     21275     21271     21270     21272
     21271     21270     21273     21271     21270     21274     21272     21270     21273
     21272     21270     21274     21273     21270     21274     21274     21275     21276
     21274     21275     21277     21274     21275     21278     21275     21278     21279
     21275     21278     21280     21275     21278     21286     21276     21275     21277
     21276     21275     21278     21277     21275     21278     21278     21280     21281
     21278     21286     21287     21278     21286     21288     21278     21286     21289
     21279     21278     21280     21279     21278     21286     21280     21278     21286
     21280     21281     21282     21280     21281     21283     21281     21283     21284
     21281     21283     21285     21281     21283     21295     21282     21281     21283
     21283     21295     21296     21283     21295     21297     21283     21295     21298
     21284     21283     21285     21284     21283     21295     21285     21283     21295
     21286     21289     21290     21287     21286     21288     21287     21286     21289
     21288     21286     21289     21289     21290     21291     21289     21290     21292
     21290     21292     21293     21290     21292     21294     21290     21292     21342
     21291     21290     21292     21292     21342     21343     21292     21342     21344
     21292     21342     21345     21293     21292     21294     21293     21292     21342
     21294     21292     21342     21295     21298     21299     21295     21298     21300
     21295     21298     21301     21296     21295     21297     21296     21295     21298
     21297     21295     21298     21298     21301     21302     21298     21301     21303
     21299     21298     21300     21299     21298     21301     21300     21298     21301
     21301     21303     21304     21301     21303     21305     21302     21301     21303
     21303     21305     21306     21303     21305     21307     21303     21305     21308
     21304     21303     21305     21305     21308     21309     21305     21308     21310
     21306     21305     21307     21306     21305     21308     21307     21305     21308
     21308     21310     21311     21308     21310     21312     21309     21308     21310
     21310     21312     21313     21310     21312     21314     21310     21312     21315
     21311     21310     21312     21312     21315     21316     21312     21315     21317
     21313     21312     21314     21313     21312     21315     21314     21312     21315
     21315     21317     21318     21315     21317     21319     21316     21315     21317
     21317     21319     21320     21317     21319     21321     21317     21319     21322
     21318     21317     21319     21319     21322     21323     21319     21322     21324
     21320     21319     21321     21320     21319     21322     21321     21319     21322
     21322     21324     21325     21322     21324     21326     21323     21322     21324
     21324     21326     21327     21324     21326     21328     21324     21326     21329
     21325     21324     21326     21326     21329     21330     21326     21329     21331
     21326     21329     21332     21327     21326     21328     21327     21326     21329
     21328     21326     21329     21329     21332     21333     21329     21332     21334
     21329     21332     21335     21330     21329     21331     21330     21329     21332
     21331     21329     21332     21332     21335     21336     21332     21335     21337
     21332     21335     21338     21333     21332     21334     21333     21332     21335
     21334     21332     21335     21335     21338     21339     21335     21338     21340
     21335     21338     21341     21336     21335     21337     21336     21335     21338
     21337     21335     21338     21339     21338     21340     21339     21338     21341
     21340     21338     21341     21342     21345     21346     21342     21345     21347
     21342     21345     21348     21343     21342     21344     21343     21342     21345
     21344     21342     21345     21345     21348     21349     21345     21348     21350
     21345     21348     21351     21346     21345     21347     21346     21345     21348
     21347     21345     21348     21348     21351     21352     21348     21351     21353
     21348     21351     21354     21349     21348     21350     21349     21348     21351
     21350     21348     21351     21351     21354     21355     21351     21354     21356
     21351     21354     21357     21352     21351     21353     21352     21351     21354
     21353     21351     21354     21354     21357     21358     21354     21357     21359
     21354     21357     21360     21355     21354     21356     21355     21354     21357
     21356     21354     21357     21357     21360     21361     21357     21360     21362
     21357     21360     21363     21358     21357     21359     21358     21357     21360
     21359     21357     21360     21360     21363     21364     21360     21363     21365
     21360     21363     21366     21361     21360     21362     21361     21360     21363
     21362     21360     21363     21363     21366     21367     21363     21366     21368
     21363     21366     21369     21364     21363     21365     21364     21363     21366
     21365     21363     21366     21366     21369     21370     21366     21369     21371
     21366     21369     21372     21367     21366     21368     21367     21366     21369
     21368     21366     21369     21369     21372     21373     21369     21372     21374
     21369     21372     21375     21370     21369     21371     21370     21369     21372
     21371     21369     21372     21372     21375     21376     21372     21375     21377
     21372     21375     21378     21373     21372     21374     21373     21372     21375
     21374     21372     21375     21375     21378     21379     21375     21378     21380
     21375     21378     21381     21376     21375     21377     21376     21375     21378
     21377     21375     21378     21378     21381     21382     21378     21381     21383
     21378     21381     21384     21379     21378     21380     21379     21378     21381
     21380     21378     21381     21381     21384     21385     21381     21384     21386
     21381     21384     21387     21382     21381     21383     21382     21381     21384
     21383     21381     21384     21384     21387     21388     21384     21387     21389
     21384     21387     21390     21385     21384     21386     21385     21384     21387
     21386     21384     21387     21388     21387     21389     21388     21387     21390
     21389     21387     21390     21391     21395     21396     21391     21395     21397
     21391     21395     21400     21392     21391     21393     21392     21391     21394
     21392     21391     21395     21393     21391     21394     21393     21391     21395
     21394     21391     21395     21395     21397     21398     21395     21397     21399
     21395     21400     21401     21395     21400     21402     21395     21400     21406
     21396     21395     21397     21396     21395     21400     21397     21395     21400
     21398     21397     21399     21400     21406     21403     21401     21400     21402
     21401     21400     21406     21402     21400     21406     21403     21407     21408
     21404     21403     21405     21404     21403     21406     21404     21403     21407
     21405     21403     21406     21405     21403     21407     21406     21403     21407
     21407     21408     21409     21407     21408     21410     21407     21408     21411
     21408     21411     21412     21408     21411     21413     21408     21411     21419
     21409     21408     21410     21409     21408     21411     21410     21408     21411
     21411     21413     21414     21411     21419     21420     21411     21419     21421
     21411     21419     21422     21412     21411     21413     21412     21411     21419
     21413     21411     21419     21413     21414     21415     21413     21414     21416
     21414     21416     21417     21414     21416     21418     21414     21416     21428
     21415     21414     21416     21416     21428     21429     21416     21428     21430
     21416     21428     21431     21417     21416     21418     21417     21416     21428
     21418     21416     21428     21419     21422     21423     21420     21419     21421
     21420     21419     21422     21421     21419     21422     21422     21423     21424
     21422     21423     21425     21423     21425     21426     21423     21425     21427
     21423     21425     21475     21424     21423     21425     21425     21475     21476
     21425     21475     21477     21425     21475     21478     21426     21425     21427
     21426     21425     21475     21427     21425     21475     21428     21431     21432
     21428     21431     21433     21428     21431     21434     21429     21428     21430
     21429     21428     21431     21430     21428     21431     21431     21434     21435
     21431     21434     21436     21432     21431     21433     21432     21431     21434
     21433     21431     21434     21434     21436     21437     21434     21436     21438
     21435     21434     21436     21436     21438     21439     21436     21438     21440
     21436     21438     21441     21437     21436     21438     21438     21441     21442
     21438     21441     21443     21439     21438     21440     21439     21438     21441
     21440     21438     21441     21441     21443     21444     21441     21443     21445
     21442     21441     21443     21443     21445     21446     21443     21445     21447
     21443     21445     21448     21444     21443     21445     21445     21448     21449
     21445     21448     21450     21446     21445     21447     21446     21445     21448
     21447     21445     21448     21448     21450     21451     21448     21450     21452
     21449     21448     21450     21450     21452     21453     21450     21452     21454
     21450     21452     21455     21451     21450     21452     21452     21455     21456
     21452     21455     21457     21453     21452     21454     21453     21452     21455
     21454     21452     21455     21455     21457     21458     21455     21457     21459
     21456     21455     21457     21457     21459     21460     21457     21459     21461
     21457     21459     21462     21458     21457     21459     21459     21462     21463
     21459     21462     21464     21459     21462     21465     21460     21459     21461
     21460     21459     21462     21461     21459     21462     21462     21465     21466
     21462     21465     21467     21462     21465     21468     21463     21462     21464
     21463     21462     21465     21464     21462     21465     21465     21468     21469
     21465     21468     21470     21465     21468     21471     21466     21465     21467
     21466     21465     21468     21467     21465     21468     21468     21471     21472
     21468     21471     21473     21468     21471     21474     21469     21468     21470
     21469     21468     21471     21470     21468     21471     21472     21471     21473
     21472     21471     21474     21473     21471     21474     21475     21478     21479
     21475     21478     21480     21475     21478     21481     21476     21475     21477
     21476     21475     21478     21477     21475     21478     21478     21481     21482
     21478     21481     21483     21478     21481     21484     21479     21478     21480
     21479     21478     21481     21480     21478     21481     21481     21484     21485
     21481     21484     21486     21481     21484     21487     21482     21481     21483
     21482     21481     21484     21483     21481     21484     21484     21487     21488
     21484     21487     21489     21484     21487     21490     21485     21484     21486
     21485     21484     21487     21486     21484     21487     21487     21490     21491
     21487     21490     21492     21487     21490     21493     21488     21487     21489
     21488     21487     21490     21489     21487     21490     21490     21493     21494
     21490     21493     21495     21490     21493     21496     21491     21490     21492
     21491     21490     21493     21492     21490     21493     21493     21496     21497
     21493     21496     21498     21493     21496     21499     21494     21493     21495
     21494     21493     21496     21495     21493     21496     21496     21499     21500
     21496     21499     21501     21496     21499     21502     21497     21496     21498
     21497     21496     21499     21498     21496     21499     21499     21502     21503
     21499     21502     21504     21499     21502     21505     21500     21499     21501
     21500     21499     21502     21501     21499     21502     21502     21505     21506
     21502     21505     21507     21502     21505     21508     21503     21502     21504
     21503     21502     21505     21504     21502     21505     21505     21508     21509
     21505     21508     21510     21505     21508     21511     21506     21505     21507
     21506     21505     21508     21507     21505     21508     21508     21511     21512
     21508     21511     21513     21508     21511     21514     21509     21508     21510
     21509     21508     21511     21510     21508     21511     21511     21514     21515
     21511     21514     21516     21511     21514     21517     21512     21511     21513
     21512     21511     21514     21513     21511     21514     21514     21517     21518
     21514     21517     21519     21514     21517     21520     21515     21514     21516
     21515     21514     21517     21516     21514     21517     21517     21520     21521
     21517     21520     21522     21517     21520     21523     21518     21517     21519
     21518     21517     21520     21519     21517     21520     21521     21520     21522
     21521     21520     21523     21522     21520     21523     21524     21528     21529
     21524     21528     21530     21524     21528     21531     21525     21524     21526
     21525     21524     21527     21525     21524     21528     21526     21524     21527
     21526     21524     21528     21527     21524     21528     21528     21531     21532
     21528     21531     21533     21528     21531     21537     21529     21528     21530
     21529     21528     21531     21530     21528     21531     21531     21537     21534
     21532     21531     21533     21532     21531     21537     21533     21531     21537
     21534     21538     21539     21535     21534     21536     21535     21534     21537
     21535     21534     21538     21536     21534     21537     21536     21534     21538
     21537     21534     21538     21538     21539     21540     21538     21539     21541
     21538     21539     21542     21539     21542     21543     21539     21542     21544
     21539     21542     21550     21540     21539     21541     21540     21539     21542
     21541     21539     21542     21542     21544     21545     21542     21550     21551
     21542     21550     21552     21542     21550     21553     21543     21542     21544
     21543     21542     21550     21544     21542     21550     21544     21545     21546
     21544     21545     21547     21545     21547     21548     21545     21547     21549
     21545     21547     21559     21546     21545     21547     21547     21559     21560
     21547     21559     21561     21547     21559     21562     21548     21547     21549
     21548     21547     21559     21549     21547     21559     21550     21553     21554
     21551     21550     21552     21551     21550     21553     21552     21550     21553
     21553     21554     21555     21553     21554     21556     21554     21556     21557
     21554     21556     21558     21554     21556     21606     21555     21554     21556
     21556     21606     21607     21556     21606     21608     21556     21606     21609
     21557     21556     21558     21557     21556     21606     21558     21556     21606
     21559     21562     21563     21559     21562     21564     21559     21562     21565
     21560     21559     21561     21560     21559     21562     21561     21559     21562
     21562     21565     21566     21562     21565     21567     21563     21562     21564
     21563     21562     21565     21564     21562     21565     21565     21567     21568
     21565     21567     21569     21566     21565     21567     21567     21569     21570
     21567     21569     21571     21567     21569     21572     21568     21567     21569
     21569     21572     21573     21569     21572     21574     21570     21569     21571
     21570     21569     21572     21571     21569     21572     21572     21574     21575
     21572     21574     21576     21573     21572     21574     21574     21576     21577
     21574     21576     21578     21574     21576     21579     21575     21574     21576
     21576     21579     21580     21576     21579     21581     21577     21576     21578
     21577     21576     21579     21578     21576     21579     21579     21581     21582
     21579     21581     21583     21580     21579     21581     21581     21583     21584
     21581     21583     21585     21581     21583     21586     21582     21581     21583
     21583     21586     21587     21583     21586     21588     21584     21583     21585
     21584     21583     21586     21585     21583     21586     21586     21588     21589
     21586     21588     21590     21587     21586     21588     21588     21590     21591
     21588     21590     21592     21588     21590     21593     21589     21588     21590
     21590     21593     21594     21590     21593     21595     21590     21593     21596
     21591     21590     21592     21591     21590     21593     21592     21590     21593
     21593     21596     21597     21593     21596     21598     21593     21596     21599
     21594     21593     21595     21594     21593     21596     21595     21593     21596
     21596     21599     21600     21596     21599     21601     21596     21599     21602
     21597     21596     21598     21597     21596     21599     21598     21596     21599
     21599     21602     21603     21599     21602     21604     21599     21602     21605
     21600     21599     21601     21600     21599     21602     21601     21599     21602
     21603     21602     21604     21603     21602     21605     21604     21602     21605
     21606     21609     21610     21606     21609     21611     21606     21609     21612
     21607     21606     21608     21607     21606     21609     21608     21606     21609
     21609     21612     21613     21609     21612     21614     21609     21612     21615
     21610     21609     21611     21610     21609     21612     21611     21609     21612
     21612     21615     21616     21612     21615     21617     21612     21615     21618
     21613     21612     21614     21613     21612     21615     21614     21612     21615
     21615     21618     21619     21615     21618     21620     21615     21618     21621
     21616     21615     21617     21616     21615     21618     21617     21615     21618
     21618     21621     21622     21618     21621     21623     21618     21621     21624
     21619     21618     21620     21619     21618     21621     21620     21618     21621
     21621     21624     21625     21621     21624     21626     21621     21624     21627
     21622     21621     21623     21622     21621     21624     21623     21621     21624
     21624     21627     21628     21624     21627     21629     21624     21627     21630
     21625     21624     21626     21625     21624     21627     21626     21624     21627
     21627     21630     21631     21627     21630     21632     21627     21630     21633
     21628     21627     21629     21628     21627     21630     21629     21627     21630
     21630     21633     21634     21630     21633     21635     21630     21633     21636
     21631     21630     21632     21631     21630     21633     21632     21630     21633
     21633     21636     21637     21633     21636     21638     21633     21636     21639
     21634     21633     21635     21634     21633     21636     21635     21633     21636
     21636     21639     21640     21636     21639     21641     21636     21639     21642
     21637     21636     21638     21637     21636     21639     21638     21636     21639
     21639     21642     21643     21639     21642     21644     21639     21642     21645
     21640     21639     21641     21640     21639     21642     21641     21639     21642
     21642     21645     21646     21642     21645     21647     21642     21645     21648
     21643     21642     21644     21643     21642     21645     21644     21642     21645
     21645     21648     21649     21645     21648     21650     21645     21648     21651
     21646     21645     21647     21646     21645     21648     21647     21645     21648
     21648     21651     21652     21648     21651     21653     21648     21651     21654
     21649     21648     21650     21649     21648     21651     21650     21648     21651
     21652     21651     21653     21652     21651     21654     21653     21651     21654
     21655     21656     21657     21655     21656     21658     21655     21656     21659
     21655     21660     21661     21655     21660     21662     21655     21660     21663
     21655     21664     21665     21655     21664     21666     21655     21664     21667
     21655     21668     21669     21655     21668     21670     21655     21668     21671
     21656     21655     21660     21656     21655     21664     21656     21655     21668
     21657     21656     21658     21657     21656     21659     21658     21656     21659
     21660     21655     21664     21660     21655     21668     21661     21660     21662
     21661     21660     21663     21662     21660     21663     21664     21655     21668
     21665     21664     21666     21665     21664     21667     21666     21664     21667
     21668     21671     21672     21668     21671     21673     21668     21671     21678
     21669     21668     21670     21669     21668     21671     21670     21668     21671
     21671     21678     21674     21672     21671     21673     21672     21671     21678
     21673     21671     21678     21674     21677     21679     21675     21674     21676
     21675     21674     21677     21675     21674     21678     21676     21674     21677
     21676     21674     21678     21677     21674     21678     21677     21679     21680
     21677     21679     21681     21677     21679     21684     21679     21684     21682
     21679     21684     21685     21679     21684     21686     21680     21679     21681
     21680     21679     21684     21681     21679     21684     21682     21684     21685
     21682     21684     21686     21682     21734     21735     21682     21734     21736
     21683     21682     21684     21683     21682     21734     21684     21682     21734
     21684     21686     21687     21684     21686     21688     21684     21686     21690
     21685     21684     21686     21686     21688     21689     21686     21690     21691
     21686     21690     21692     21687     21686     21688     21687     21686     21690
     21688     21686     21690     21690     21692     21693     21690     21692     21694
     21691     21690     21692     21692     21694     21695     21692     21694     21696
     21692     21694     21697     21693     21692     21694     21694     21697     21698
     21694     21697     21699     21694     21697     21700     21695     21694     21696
     21695     21694     21697     21696     21694     21697     21697     21700     21701
     21697     21700     21702     21697     21700     21703     21698     21697     21699
     21698     21697     21700     21699     21697     21700     21700     21703     21704
     21700     21703     21705     21700     21703     21706     21701     21700     21702
     21701     21700     21703     21702     21700     21703     21703     21706     21707
     21703     21706     21708     21703     21706     21709     21704     21703     21705
     21704     21703     21706     21705     21703     21706     21706     21709     21710
     21706     21709     21711     21706     21709     21712     21707     21706     21708
     21707     21706     21709     21708     21706     21709     21709     21712     21713
     21709     21712     21714     21709     21712     21715     21710     21709     21711
     21710     21709     21712     21711     21709     21712     21712     21715     21716
     21712     21715     21717     21712     21715     21718     21713     21712     21714
     21713     21712     21715     21714     21712     21715     21715     21718     21719
     21715     21718     21720     21715     21718     21721     21716     21715     21717
     21716     21715     21718     21717     21715     21718     21718     21721     21722
     21718     21721     21723     21718     21721     21724     21719     21718     21720
     21719     21718     21721     21720     21718     21721     21721     21724     21725
     21721     21724     21726     21721     21724     21727     21722     21721     21723
     21722     21721     21724     21723     21721     21724     21724     21727     21728
     21724     21727     21729     21724     21727     21730     21725     21724     21726
     21725     21724     21727     21726     21724     21727     21727     21730     21731
     21727     21730     21732     21727     21730     21733     21728     21727     21729
     21728     21727     21730     21729     21727     21730     21731     21730     21732
     21731     21730     21733     21732     21730     21733     21734     21736     21737
     21734     21736     21738     21734     21736     21739     21735     21734     21736
     21736     21739     21740     21736     21739     21741     21736     21739     21742
     21737     21736     21738     21737     21736     21739     21738     21736     21739
     21739     21742     21743     21739     21742     21744     21739     21742     21745
     21740     21739     21741     21740     21739     21742     21741     21739     21742
     21742     21745     21746     21742     21745     21747     21742     21745     21748
     21743     21742     21744     21743     21742     21745     21744     21742     21745
     21745     21748     21749     21745     21748     21750     21745     21748     21751
     21746     21745     21747     21746     21745     21748     21747     21745     21748
     21748     21751     21752     21748     21751     21753     21748     21751     21754
     21749     21748     21750     21749     21748     21751     21750     21748     21751
     21751     21754     21755     21751     21754     21756     21751     21754     21757
     21752     21751     21753     21752     21751     21754     21753     21751     21754
     21754     21757     21758     21754     21757     21759     21755     21754     21756
     21755     21754     21757     21756     21754     21757     21757     21759     21760
     21757     21759     21761     21758     21757     21759     21759     21761     21762
     21759     21761     21763     21759     21761     21764     21760     21759     21761
     21761     21764     21765     21761     21764     21766     21761     21764     21767
     21762     21761     21763     21762     21761     21764     21763     21761     21764
     21764     21767     21768     21764     21767     21769     21764     21767     21770
     21765     21764     21766     21765     21764     21767     21766     21764     21767
     21767     21770     21771     21767     21770     21772     21767     21770     21773
     21768     21767     21769     21768     21767     21770     21769     21767     21770
     21770     21773     21774     21770     21773     21775     21770     21773     21776
     21771     21770     21772     21771     21770     21773     21772     21770     21773
     21773     21776     21777     21773     21776     21778     21773     21776     21779
     21774     21773     21775     21774     21773     21776     21775     21773     21776
     21776     21779     21780     21776     21779     21781     21776     21779     21782
     21777     21776     21778     21777     21776     21779     21778     21776     21779
     21779     21782     21783     21779     21782     21784     21779     21782     21785
     21780     21779     21781     21780     21779     21782     21781     21779     21782
     21783     21782     21784     21783     21782     21785     21784     21782     21785
     21786     21787     21788     21786     21787     21789     21786     21787     21790
     21786     21791     21792     21786     21791     21793     21786     21791     21794
     21786     21795     21796     21786     21795     21797     21786     21795     21798
     21786     21799     21800     21786     21799     21801     21786     21799     21802
     21787     21786     21791     21787     21786     21795     21787     21786     21799
     21788     21787     21789     21788     21787     21790     21789     21787     21790
     21791     21786     21795     21791     21786     21799     21792     21791     21793
     21792     21791     21794     21793     21791     21794     21795     21786     21799
     21796     21795     21797     21796     21795     21798     21797     21795     21798
     21799     21802     21803     21799     21802     21804     21799     21802     21809
     21800     21799     21801     21800     21799     21802     21801     21799     21802
     21802     21809     21805     21803     21802     21804     21803     21802     21809
     21804     21802     21809     21805     21808     21810     21806     21805     21807
     21806     21805     21808     21806     21805     21809     21807     21805     21808
     21807     21805     21809     21808     21805     21809     21808     21810     21811
     21808     21810     21812     21808     21810     21815     21810     21815     21813
     21810     21815     21816     21810     21815     21817     21811     21810     21812
     21811     21810     21815     21812     21810     21815     21813     21815     21816
     21813     21815     21817     21813     21865     21866     21813     21865     21867
     21814     21813     21815     21814     21813     21865     21815     21813     21865
     21815     21817     21818     21815     21817     21819     21815     21817     21821
     21816     21815     21817     21817     21819     21820     21817     21821     21822
     21817     21821     21823     21818     21817     21819     21818     21817     21821
     21819     21817     21821     21821     21823     21824     21821     21823     21825
     21822     21821     21823     21823     21825     21826     21823     21825     21827
     21823     21825     21828     21824     21823     21825     21825     21828     21829
     21825     21828     21830     21825     21828     21831     21826     21825     21827
     21826     21825     21828     21827     21825     21828     21828     21831     21832
     21828     21831     21833     21828     21831     21834     21829     21828     21830
     21829     21828     21831     21830     21828     21831     21831     21834     21835
     21831     21834     21836     21831     21834     21837     21832     21831     21833
     21832     21831     21834     21833     21831     21834     21834     21837     21838
     21834     21837     21839     21834     21837     21840     21835     21834     21836
     21835     21834     21837     21836     21834     21837     21837     21840     21841
     21837     21840     21842     21837     21840     21843     21838     21837     21839
     21838     21837     21840     21839     21837     21840     21840     21843     21844
     21840     21843     21845     21840     21843     21846     21841     21840     21842
     21841     21840     21843     21842     21840     21843     21843     21846     21847
     21843     21846     21848     21843     21846     21849     21844     21843     21845
     21844     21843     21846     21845     21843     21846     21846     21849     21850
     21846     21849     21851     21846     21849     21852     21847     21846     21848
     21847     21846     21849     21848     21846     21849     21849     21852     21853
     21849     21852     21854     21849     21852     21855     21850     21849     21851
     21850     21849     21852     21851     21849     21852     21852     21855     21856
     21852     21855     21857     21852     21855     21858     21853     21852     21854
     21853     21852     21855     21854     21852     21855     21855     21858     21859
     21855     21858     21860     21855     21858     21861     21856     21855     21857
     21856     21855     21858     21857     21855     21858     21858     21861     21862
     21858     21861     21863     21858     21861     21864     21859     21858     21860
     21859     21858     21861     21860     21858     21861     21862     21861     21863
     21862     21861     21864     21863     21861     21864     21865     21867     21868
     21865     21867     21869     21865     21867     21870     21866     21865     21867
     21867     21870     21871     21867     21870     21872     21867     21870     21873
     21868     21867     21869     21868     21867     21870     21869     21867     21870
     21870     21873     21874     21870     21873     21875     21870     21873     21876
     21871     21870     21872     21871     21870     21873     21872     21870     21873
     21873     21876     21877     21873     21876     21878     21873     21876     21879
     21874     21873     21875     21874     21873     21876     21875     21873     21876
     21876     21879     21880     21876     21879     21881     21876     21879     21882
     21877     21876     21878     21877     21876     21879     21878     21876     21879
     21879     21882     21883     21879     21882     21884     21879     21882     21885
     21880     21879     21881     21880     21879     21882     21881     21879     21882
     21882     21885     21886     21882     21885     21887     21882     21885     21888
     21883     21882     21884     21883     21882     21885     21884     21882     21885
     21885     21888     21889     21885     21888     21890     21886     21885     21887
     21886     21885     21888     21887     21885     21888     21888     21890     21891
     21888     21890     21892     21889     21888     21890     21890     21892     21893
     21890     21892     21894     21890     21892     21895     21891     21890     21892
     21892     21895     21896     21892     21895     21897     21892     21895     21898
     21893     21892     21894     21893     21892     21895     21894     21892     21895
     21895     21898     21899     21895     21898     21900     21895     21898     21901
     21896     21895     21897     21896     21895     21898     21897     21895     21898
     21898     21901     21902     21898     21901     21903     21898     21901     21904
     21899     21898     21900     21899     21898     21901     21900     21898     21901
     21901     21904     21905     21901     21904     21906     21901     21904     21907
     21902     21901     21903     21902     21901     21904     21903     21901     21904
     21904     21907     21908     21904     21907     21909     21904     21907     21910
     21905     21904     21906     21905     21904     21907     21906     21904     21907
     21907     21910     21911     21907     21910     21912     21907     21910     21913
     21908     21907     21909     21908     21907     21910     21909     21907     21910
     21910     21913     21914     21910     21913     21915     21910     21913     21916
     21911     21910     21912     21911     21910     21913     21912     21910     21913
     21914     21913     21915     21914     21913     21916     21915     21913     21916
     21917     21921     21922     21917     21921     21923     21917     21921     21924
     21918     21917     21919     21918     21917     21920     21918     21917     21921
     21919     21917     21920     21919     21917     21921     21920     21917     21921
     21921     21924     21925     21921     21924     21926     21921     21924     21930
     21922     21921     21923     21922     21921     21924     21923     21921     21924
     21924     21930     21927     21925     21924     21926     21925     21924     21930
     21926     21924     21930     21927     21931     21932     21928     21927     21929
     21928     21927     21930     21928     21927     21931     21929     21927     21930
     21929     21927     21931     21930     21927     21931     21931     21932     21933
     21931     21932     21934     21931     21932     21935     21932     21935     21936
     21932     21935     21937     21932     21935     21943     21933     21932     21934
     21933     21932     21935     21934     21932     21935     21935     21937     21938
     21935     21943     21944     21935     21943     21945     21935     21943     21946
     21936     21935     21937     21936     21935     21943     21937     21935     21943
     21937     21938     21939     21937     21938     21940     21938     21940     21941
     21938     21940     21942     21938     21940     21952     21939     21938     21940
     21940     21952     21953     21940     21952     21954     21940     21952     21955
     21941     21940     21942     21941     21940     21952     21942     21940     21952
     21943     21946     21947     21944     21943     21945     21944     21943     21946
     21945     21943     21946     21946     21947     21948     21946     21947     21949
     21947     21949     21950     21947     21949     21951     21947     21949     21999
     21948     21947     21949     21949     21999     22000     21949     21999     22001
     21949     21999     22002     21950     21949     21951     21950     21949     21999
     21951     21949     21999     21952     21955     21956     21952     21955     21957
     21952     21955     21958     21953     21952     21954     21953     21952     21955
     21954     21952     21955     21955     21958     21959     21955     21958     21960
     21956     21955     21957     21956     21955     21958     21957     21955     21958
     21958     21960     21961     21958     21960     21962     21959     21958     21960
     21960     21962     21963     21960     21962     21964     21960     21962     21965
     21961     21960     21962     21962     21965     21966     21962     21965     21967
     21963     21962     21964     21963     21962     21965     21964     21962     21965
     21965     21967     21968     21965     21967     21969     21966     21965     21967
     21967     21969     21970     21967     21969     21971     21967     21969     21972
     21968     21967     21969     21969     21972     21973     21969     21972     21974
     21970     21969     21971     21970     21969     21972     21971     21969     21972
     21972     21974     21975     21972     21974     21976     21973     21972     21974
     21974     21976     21977     21974     21976     21978     21974     21976     21979
     21975     21974     21976     21976     21979     21980     21976     21979     21981
     21977     21976     21978     21977     21976     21979     21978     21976     21979
     21979     21981     21982     21979     21981     21983     21980     21979     21981
     21981     21983     21984     21981     21983     21985     21981     21983     21986
     21982     21981     21983     21983     21986     21987     21983     21986     21988
     21983     21986     21989     21984     21983     21985     21984     21983     21986
     21985     21983     21986     21986     21989     21990     21986     21989     21991
     21986     21989     21992     21987     21986     21988     21987     21986     21989
     21988     21986     21989     21989     21992     21993     21989     21992     21994
     21989     21992     21995     21990     21989     21991     21990     21989     21992
     21991     21989     21992     21992     21995     21996     21992     21995     21997
     21992     21995     21998     21993     21992     21994     21993     21992     21995
     21994     21992     21995     21996     21995     21997     21996     21995     21998
     21997     21995     21998     21999     22002     22003     21999     22002     22004
     21999     22002     22005     22000     21999     22001     22000     21999     22002
     22001     21999     22002     22002     22005     22006     22002     22005     22007
     22002     22005     22008     22003     22002     22004     22003     22002     22005
     22004     22002     22005     22005     22008     22009     22005     22008     22010
     22005     22008     22011     22006     22005     22007     22006     22005     22008
     22007     22005     22008     22008     22011     22012     22008     22011     22013
     22008     22011     22014     22009     22008     22010     22009     22008     22011
     22010     22008     22011     22011     22014     22015     22011     22014     22016
     22011     22014     22017     22012     22011     22013     22012     22011     22014
     22013     22011     22014     22014     22017     22018     22014     22017     22019
     22014     22017     22020     22015     22014     22016     22015     22014     22017
     22016     22014     22017     22017     22020     22021     22017     22020     22022
     22017     22020     22023     22018     22017     22019     22018     22017     22020
     22019     22017     22020     22020     22023     22024     22020     22023     22025
     22020     22023     22026     22021     22020     22022     22021     22020     22023
     22022     22020     22023     22023     22026     22027     22023     22026     22028
     22023     22026     22029     22024     22023     22025     22024     22023     22026
     22025     22023     22026     22026     22029     22030     22026     22029     22031
     22026     22029     22032     22027     22026     22028     22027     22026     22029
     22028     22026     22029     22029     22032     22033     22029     22032     22034
     22029     22032     22035     22030     22029     22031     22030     22029     22032
     22031     22029     22032     22032     22035     22036     22032     22035     22037
     22032     22035     22038     22033     22032     22034     22033     22032     22035
     22034     22032     22035     22035     22038     22039     22035     22038     22040
     22035     22038     22041     22036     22035     22037     22036     22035     22038
     22037     22035     22038     22038     22041     22042     22038     22041     22043
     22038     22041     22044     22039     22038     22040     22039     22038     22041
     22040     22038     22041     22041     22044     22045     22041     22044     22046
     22041     22044     22047     22042     22041     22043     22042     22041     22044
     22043     22041     22044     22045     22044     22046     22045     22044     22047
     22046     22044     22047     22048     22052     22053     22048     22052     22054
     22048     22052     22055     22049     22048     22050     22049     22048     22051
     22049     22048     22052     22050     22048     22051     22050     22048     22052
     22051     22048     22052     22052     22055     22056     22052     22055     22057
     22052     22055     22061     22053     22052     22054     22053     22052     22055
     22054     22052     22055     22055     22061     22058     22056     22055     22057
     22056     22055     22061     22057     22055     22061     22058     22062     22063
     22059     22058     22060     22059     22058     22061     22059     22058     22062
     22060     22058     22061     22060     22058     22062     22061     22058     22062
     22062     22063     22064     22062     22063     22065     22062     22063     22066
     22063     22066     22067     22063     22066     22068     22063     22066     22074
     22064     22063     22065     22064     22063     22066     22065     22063     22066
     22066     22068     22069     22066     22074     22075     22066     22074     22076
     22066     22074     22077     22067     22066     22068     22067     22066     22074
     22068     22066     22074     22068     22069     22070     22068     22069     22071
     22069     22071     22072     22069     22071     22073     22069     22071     22083
     22070     22069     22071     22071     22083     22084     22071     22083     22085
     22071     22083     22086     22072     22071     22073     22072     22071     22083
     22073     22071     22083     22074     22077     22078     22075     22074     22076
     22075     22074     22077     22076     22074     22077     22077     22078     22079
     22077     22078     22080     22078     22080     22081     22078     22080     22082
     22078     22080     22130     22079     22078     22080     22080     22130     22131
     22080     22130     22132     22080     22130     22133     22081     22080     22082
     22081     22080     22130     22082     22080     22130     22083     22086     22087
     22083     22086     22088     22083     22086     22089     22084     22083     22085
     22084     22083     22086     22085     22083     22086     22086     22089     22090
     22086     22089     22091     22087     22086     22088     22087     22086     22089
     22088     22086     22089     22089     22091     22092     22089     22091     22093
     22090     22089     22091     22091     22093     22094     22091     22093     22095
     22091     22093     22096     22092     22091     22093     22093     22096     22097
     22093     22096     22098     22094     22093     22095     22094     22093     22096
     22095     22093     22096     22096     22098     22099     22096     22098     22100
     22097     22096     22098     22098     22100     22101     22098     22100     22102
     22098     22100     22103     22099     22098     22100     22100     22103     22104
     22100     22103     22105     22101     22100     22102     22101     22100     22103
     22102     22100     22103     22103     22105     22106     22103     22105     22107
     22104     22103     22105     22105     22107     22108     22105     22107     22109
     22105     22107     22110     22106     22105     22107     22107     22110     22111
     22107     22110     22112     22108     22107     22109     22108     22107     22110
     22109     22107     22110     22110     22112     22113     22110     22112     22114
     22111     22110     22112     22112     22114     22115     22112     22114     22116
     22112     22114     22117     22113     22112     22114     22114     22117     22118
     22114     22117     22119     22114     22117     22120     22115     22114     22116
     22115     22114     22117     22116     22114     22117     22117     22120     22121
     22117     22120     22122     22117     22120     22123     22118     22117     22119
     22118     22117     22120     22119     22117     22120     22120     22123     22124
     22120     22123     22125     22120     22123     22126     22121     22120     22122
     22121     22120     22123     22122     22120     22123     22123     22126     22127
     22123     22126     22128     22123     22126     22129     22124     22123     22125
     22124     22123     22126     22125     22123     22126     22127     22126     22128
     22127     22126     22129     22128     22126     22129     22130     22133     22134
     22130     22133     22135     22130     22133     22136     22131     22130     22132
     22131     22130     22133     22132     22130     22133     22133     22136     22137
     22133     22136     22138     22133     22136     22139     22134     22133     22135
     22134     22133     22136     22135     22133     22136     22136     22139     22140
     22136     22139     22141     22136     22139     22142     22137     22136     22138
     22137     22136     22139     22138     22136     22139     22139     22142     22143
     22139     22142     22144     22139     22142     22145     22140     22139     22141
     22140     22139     22142     22141     22139     22142     22142     22145     22146
     22142     22145     22147     22142     22145     22148     22143     22142     22144
     22143     22142     22145     22144     22142     22145     22145     22148     22149
     22145     22148     22150     22145     22148     22151     22146     22145     22147
     22146     22145     22148     22147     22145     22148     22148     22151     22152
     22148     22151     22153     22148     22151     22154     22149     22148     22150
     22149     22148     22151     22150     22148     22151     22151     22154     22155
     22151     22154     22156     22151     22154     22157     22152     22151     22153
     22152     22151     22154     22153     22151     22154     22154     22157     22158
     22154     22157     22159     22154     22157     22160     22155     22154     22156
     22155     22154     22157     22156     22154     22157     22157     22160     22161
     22157     22160     22162     22157     22160     22163     22158     22157     22159
     22158     22157     22160     22159     22157     22160     22160     22163     22164
     22160     22163     22165     22160     22163     22166     22161     22160     22162
     22161     22160     22163     22162     22160     22163     22163     22166     22167
     22163     22166     22168     22163     22166     22169     22164     22163     22165
     22164     22163     22166     22165     22163     22166     22166     22169     22170
     22166     22169     22171     22166     22169     22172     22167     22166     22168
     22167     22166     22169     22168     22166     22169     22169     22172     22173
     22169     22172     22174     22169     22172     22175     22170     22169     22171
     22170     22169     22172     22171     22169     22172     22172     22175     22176
     22172     22175     22177     22172     22175     22178     22173     22172     22174
     22173     22172     22175     22174     22172     22175     22176     22175     22177
     22176     22175     22178     22177     22175     22178     22179     22181     22182
     22179     22183     22184     22179     22183     22185     22179     22183     22186
     22179     22225     22222     22179     22225     22226     22179     22225     22227
     22180     22179     22181     22180     22179     22183     22180     22179     22225
     22181     22179     22183     22181     22179     22225     22183     22179     22225
     22183     22186     22187     22183     22186     22217     22184     22183     22185
     22184     22183     22186     22185     22183     22186     22186     22187     22188
     22186     22187     22189     22186     22217     22215     22186     22217     22218
     22186     22217     22222     22187     22186     22217     22187     22189     22190
     22187     22189     22191     22187     22189     22192     22188     22187     22189
     22189     22192     22193     22189     22192     22194     22189     22192     22215
     22190     22189     22191     22190     22189     22192     22191     22189     22192
     22192     22194     22195     22192     22194     22196     22192     22194     22204
     22192     22215     22212     22192     22215     22216     22192     22215     22217
     22193     22192     22194     22193     22192     22215     22194     22192     22215
     22194     22196     22197     22194     22196     22198     22194     22196     22199
     22194     22204     22202     22194     22204     22205     22194     22204     22209
     22195     22194     22196     22195     22194     22204     22196     22194     22204
     22196     22199     22200     22196     22199     22201     22196     22199     22202
     22197     22196     22198     22197     22196     22199     22198     22196     22199
     22199     22202     22203     22199     22202     22204     22199     22202     22228
     22200     22199     22201     22200     22199     22202     22201     22199     22202
     22202     22204     22205     22202     22204     22209     22202     22228     22229
     22202     22228     22230     22202     22228     22234     22203     22202     22204
     22203     22202     22228     22204     22202     22228     22204     22205     22206
     22204     22205     22207     22204     22205     22208     22204     22209     22210
     22204     22209     22211     22204     22209     22212     22205     22204     22209
     22206     22205     22207     22206     22205     22208     22207     22205     22208
     22209     22212     22213     22209     22212     22214     22209     22212     22215
     22210     22209     22211     22210     22209     22212     22211     22209     22212
     22212     22215     22216     22212     22215     22217     22213     22212     22214
     22213     22212     22215     22214     22212     22215     22215     22217     22218
     22215     22217     22222     22216     22215     22217     22217     22218     22219
     22217     22218     22220     22217     22218     22221     22217     22222     22223
     22217     22222     22224     22217     22222     22225     22218     22217     22222
     22219     22218     22220     22219     22218     22221     22220     22218     22221
     22222     22225     22226     22222     22225     22227     22223     22222     22224
     22223     22222     22225     22224     22222     22225     22226     22225     22227
     22228     22230     22231     22228     22230     22232     22228     22230     22233
     22228     22234     22235     22228     22234     22236     22228     22234     22237
     22229     22228     22230     22229     22228     22234     22230     22228     22234
     22231     22230     22232     22231     22230     22233     22232     22230     22233
     22234     22237     22238     22234     22237     22239     22234     22237     22240
     22235     22234     22236     22235     22234     22237     22236     22234     22237
     22237     22240     22241     22237     22240     22242     22237     22240     22243
     22238     22237     22239     22238     22237     22240     22239     22237     22240
     22240     22243     22244     22240     22243     22245     22240     22243     22249
     22241     22240     22242     22241     22240     22243     22242     22240     22243
     22243     22245     22246     22243     22245     22247     22243     22245     22248
     22243     22249     22250     22243     22249     22251     22243     22249     22252
     22244     22243     22245     22244     22243     22249     22245     22243     22249
     22246     22245     22247     22246     22245     22248     22247     22245     22248
     22250     22249     22251     22250     22249     22252     22251     22249     22252

     61788 !NPHI: dihedrals
         1         5         8         9         1         5         8        39
         1        47        44        39         1        47        44        45
         1        47        44        46         2         1         3         4
         2         1         5         6         2         1         5         7
         2         1         5         8         2         1        47        44
         2         1        47        48         2         1        47        49
         3         1         5         6         3         1         5         7
         3         1         5         8         3         1        47        44
         3         1        47        48         3         1        47        49
         4         3         1         5         4         3         1        47
         5         1        47        44         5         1        47        48
         5         1        47        49         5         8         9        10
         5         8         9        11         5         8        39        37
         5         8        39        40         5         8        39        44
         6         5         1        47         6         5         8         9
         6         5         8        39         7         5         1        47
         7         5         8         9         7         5         8        39
         8         5         1        47         8         9        11        12
         8         9        11        13         8         9        11        14
         8        39        37        14         8        39        37        34
         8        39        37        38         8        39        40        41
         8        39        40        42         8        39        40        43
         8        39        44        45         8        39        44        46
         8        39        44        47         9         8        39        37
         9         8        39        40         9         8        39        44
         9        11        14        15         9        11        14        16
         9        11        14        37        10         9         8        39
        10         9        11        12        10         9        11        13
        10         9        11        14        11         9         8        39
        11        14        16        17        11        14        16        18
        11        14        16        26        11        14        37        34
        11        14        37        38        11        14        37        39
        12        11        14        15        12        11        14        16
        12        11        14        37        13        11        14        15
        13        11        14        16        13        11        14        37
        14        16        18        19        14        16        18        20
        14        16        18        21        14        16        26        24
        14        16        26        27        14        16        26        31
        14        37        34        31        14        37        34        35
        14        37        34        36        14        37        39        40
        14        37        39        44        15        14        16        17
        15        14        16        18        15        14        16        26
        15        14        37        34        15        14        37        38
        15        14        37        39        16        14        37        34
        16        14        37        38        16        14        37        39
        16        18        21        22        16        18        21        23
        16        18        21        24        16        26        24        21
        16        26        24        25        16        26        24        50
        16        26        27        28        16        26        27        29
        16        26        27        30        16        26        31        32
        16        26        31        33        16        26        31        34
        17        16        14        37        17        16        18        19
        17        16        18        20        17        16        18        21
        17        16        26        24        17        16        26        27
        17        16        26        31        18        16        14        37
        18        16        26        24        18        16        26        27
        18        16        26        31        18        21        24        25
        18        21        24        26        18        21        24        50
        19        18        16        26        19        18        21        22
        19        18        21        23        19        18        21        24
        20        18        16        26        20        18        21        22
        20        18        21        23        20        18        21        24
        21        18        16        26        21        24        26        27
        21        24        26        31        21        24        50        51
        21        24        50        52        21        24        50        56
        22        21        24        25        22        21        24        26
        22        21        24        50        23        21        24        25
        23        21        24        26        23        21        24        50
        24        26        27        28        24        26        27        29
        24        26        27        30        24        26        31        32
        24        26        31        33        24        26        31        34
        24        50        52        53        24        50        52        54
        24        50        52        55        24        50        56        57
        24        50        56        58        24        50        56        59
        25        24        26        27        25        24        26        31
        25        24        50        51        25        24        50        52
        25        24        50        56        26        16        14        37
        26        24        50        51        26        24        50        52
        26        24        50        56        26        31        34        35
        26        31        34        36        26        31        34        37
        27        26        24        50        27        26        31        32
        27        26        31        33        27        26        31        34
        28        27        26        31        29        27        26        31
        30        27        26        31        31        26        24        50
        31        34        37        38        31        34        37        39
        32        31        34        35        32        31        34        36
        32        31        34        37        33        31        34        35
        33        31        34        36        33        31        34        37
        34        37        39        40        34        37        39        44
        35        34        37        38        35        34        37        39
        36        34        37        38        36        34        37        39
        37        39        40        41        37        39        40        42
        37        39        40        43        37        39        44        45
        37        39        44        46        37        39        44        47
        38        37        39        40        38        37        39        44
        39        44        47        48        39        44        47        49
        40        39        44        45        40        39        44        46
        40        39        44        47        41        40        39        44
        42        40        39        44        43        40        39        44
        45        44        47        48        45        44        47        49
        46        44        47        48        46        44        47        49
        50        56        59        60        50        56        59        61
        50        56        59        62        51        50        52        53
        51        50        52        54        51        50        52        55
        51        50        56        57        51        50        56        58
        51        50        56        59        52        50        56        57
        52        50        56        58        52        50        56        59
        53        52        50        56        54        52        50        56
        55        52        50        56        56        59        62        63
        56        59        62        64        56        59        62        65
        57        56        59        60        57        56        59        61
        57        56        59        62        58        56        59        60
        58        56        59        61        58        56        59        62
        59        62        65        66        59        62        65        67
        59        62        65        71        60        59        62        63
        60        59        62        64        60        59        62        65
        61        59        62        63        61        59        62        64
        61        59        62        65        62        65        67        68
        62        65        67        69        62        65        67        70
        62        65        71        72        62        65        71        73
        62        65        71        74        63        62        65        66
        63        62        65        67        63        62        65        71
        64        62        65        66        64        62        65        67
        64        62        65        71        66        65        67        68
        66        65        67        69        66        65        67        70
        66        65        71        72        66        65        71        73
        66        65        71        74        67        65        71        72
        67        65        71        73        67        65        71        74
        68        67        65        71        69        67        65        71
        70        67        65        71        75        76        91        92
        75        76        91        93        75        76        91        97
        76        75        79        80        76        75        79        81
        76        75        79        82        76        75        83        84
        76        75        83        85        76        75        83        86
        76        75        87        88        76        75        87        89
        76        75        87        90        76        91        97        94
        77        76        75        79        77        76        75        83
        77        76        75        87        77        76        91        92
        77        76        91        93        77        76        91        97
        78        76        75        79        78        76        75        83
        78        76        75        87        78        76        91        92
        78        76        91        93        78        76        91        97
        79        75        76        91        79        75        83        84
        79        75        83        85        79        75        83        86
        79        75        87        88        79        75        87        89
        79        75        87        90        80        79        75        83
        80        79        75        87        81        79        75        83
        81        79        75        87        82        79        75        83
        82        79        75        87        83        75        76        91
        83        75        87        88        83        75        87        89
        83        75        87        90        84        83        75        87
        85        83        75        87        86        83        75        87
        87        75        76        91        91        97        94        95
        91        97        94        96        91        97        94        98
        92        91        97        94        93        91        97        94
        94        98        99       100        94        98        99       101
        94        98        99       102        95        94        98        99
        96        94        98        99        97        94        98        99
        98        99       102       103        98        99       102       104
        98        99       102       110        99       102       104       105
        99       102       110       111        99       102       110       112
        99       102       110       113       100        99       102       103
       100        99       102       104       100        99       102       110
       101        99       102       103       101        99       102       104
       101        99       102       110       102       104       105       106
       102       104       105       107       102       110       113       114
       103       102       104       105       103       102       110       111
       103       102       110       112       103       102       110       113
       104       102       110       111       104       102       110       112
       104       102       110       113       104       105       107       108
       104       105       107       109       104       105       107       119
       105       104       102       110       105       107       119       120
       105       107       119       121       105       107       119       122
       106       105       107       108       106       105       107       109
       106       105       107       119       107       119       122       123
       107       119       122       124       107       119       122       125
       108       107       119       120       108       107       119       121
       108       107       119       122       109       107       119       120
       109       107       119       121       109       107       119       122
       110       113       114       115       110       113       114       116
       111       110       113       114       112       110       113       114
       113       114       116       117       113       114       116       118
       113       114       116       166       114       116       166       167
       114       116       166       168       114       116       166       169
       115       114       116       117       115       114       116       118
       115       114       116       166       116       166       169       170
       116       166       169       171       116       166       169       172
       117       116       166       167       117       116       166       168
       117       116       166       169       118       116       166       167
       118       116       166       168       118       116       166       169
       119       122       125       126       119       122       125       127
       120       119       122       123       120       119       122       124
       120       119       122       125       121       119       122       123
       121       119       122       124       121       119       122       125
       122       125       127       128       122       125       127       129
       123       122       125       126       123       122       125       127
       124       122       125       126       124       122       125       127
       125       127       129       130       125       127       129       131
       125       127       129       132       126       125       127       128
       126       125       127       129       127       129       132       133
       127       129       132       134       128       127       129       130
       128       127       129       131       128       127       129       132
       129       132       134       135       129       132       134       136
       130       129       132       133       130       129       132       134
       131       129       132       133       131       129       132       134
       132       134       136       137       132       134       136       138
       132       134       136       139       133       132       134       135
       133       132       134       136       134       136       139       140
       134       136       139       141       135       134       136       137
       135       134       136       138       135       134       136       139
       136       139       141       142       136       139       141       143
       137       136       139       140       137       136       139       141
       138       136       139       140       138       136       139       141
       139       141       143       144       139       141       143       145
       139       141       143       146       140       139       141       142
       140       139       141       143       141       143       146       147
       141       143       146       148       142       141       143       144
       142       141       143       145       142       141       143       146
       143       146       148       149       143       146       148       150
       144       143       146       147       144       143       146       148
       145       143       146       147       145       143       146       148
       146       148       150       151       146       148       150       152
       146       148       150       153       147       146       148       149
       147       146       148       150       148       150       153       154
       148       150       153       155       148       150       153       156
       149       148       150       151       149       148       150       152
       149       148       150       153       150       153       156       157
       150       153       156       158       150       153       156       159
       151       150       153       154       151       150       153       155
       151       150       153       156       152       150       153       154
       152       150       153       155       152       150       153       156
       153       156       159       160       153       156       159       161
       153       156       159       162       154       153       156       157
       154       153       156       158       154       153       156       159
       155       153       156       157       155       153       156       158
       155       153       156       159       156       159       162       163
       156       159       162       164       156       159       162       165
       157       156       159       160       157       156       159       161
       157       156       159       162       158       156       159       160
       158       156       159       161       158       156       159       162
       160       159       162       163       160       159       162       164
       160       159       162       165       161       159       162       163
       161       159       162       164       161       159       162       165
       166       169       172       173       166       169       172       174
       166       169       172       175       167       166       169       170
       167       166       169       171       167       166       169       172
       168       166       169       170       168       166       169       171
       168       166       169       172       169       172       175       176
       169       172       175       177       169       172       175       178
       170       169       172       173       170       169       172       174
       170       169       172       175       171       169       172       173
       171       169       172       174       171       169       172       175
       172       175       178       179       172       175       178       180
       172       175       178       181       173       172       175       176
       173       172       175       177       173       172       175       178
       174       172       175       176       174       172       175       177
       174       172       175       178       175       178       181       182
       175       178       181       183       175       178       181       184
       176       175       178       179       176       175       178       180
       176       175       178       181       177       175       178       179
       177       175       178       180       177       175       178       181
       178       181       184       185       178       181       184       186
       178       181       184       187       179       178       181       182
       179       178       181       183       179       178       181       184
       180       178       181       182       180       178       181       183
       180       178       181       184       181       184       187       188
       181       184       187       189       181       184       187       190
       182       181       184       185       182       181       184       186
       182       181       184       187       183       181       184       185
       183       181       184       186       183       181       184       187
       184       187       190       191       184       187       190       192
       184       187       190       193       185       184       187       188
       185       184       187       189       185       184       187       190
       186       184       187       188       186       184       187       189
       186       184       187       190       187       190       193       194
       187       190       193       195       187       190       193       196
       188       187       190       191       188       187       190       192
       188       187       190       193       189       187       190       191
       189       187       190       192       189       187       190       193
       190       193       196       197       190       193       196       198
       190       193       196       199       191       190       193       194
       191       190       193       195       191       190       193       196
       192       190       193       194       192       190       193       195
       192       190       193       196       193       196       199       200
       193       196       199       201       193       196       199       202
       194       193       196       197       194       193       196       198
       194       193       196       199       195       193       196       197
       195       193       196       198       195       193       196       199
       196       199       202       203       196       199       202       204
       196       199       202       205       197       196       199       200
       197       196       199       201       197       196       199       202
       198       196       199       200       198       196       199       201
       198       196       199       202       199       202       205       206
       199       202       205       207       199       202       205       208
       200       199       202       203       200       199       202       204
       200       199       202       205       201       199       202       203
       201       199       202       204       201       199       202       205
       202       205       208       209       202       205       208       210
       202       205       208       211       203       202       205       206
       203       202       205       207       203       202       205       208
       204       202       205       206       204       202       205       207
       204       202       205       208       205       208       211       212
       205       208       211       213       205       208       211       214
       206       205       208       209       206       205       208       210
       206       205       208       211       207       205       208       209
       207       205       208       210       207       205       208       211
       209       208       211       212       209       208       211       213
       209       208       211       214       210       208       211       212
       210       208       211       213       210       208       211       214
       215       228       231       232       215       228       231       233
       215       228       231       237       216       215       220       221
       216       215       220       222       216       215       220       223
       216       215       224       225       216       215       224       226
       216       215       224       227       216       215       228       229
       216       215       228       230       216       215       228       231
       217       216       215       220       217       216       215       224
       217       216       215       228       218       216       215       220
       218       216       215       224       218       216       215       228
       219       216       215       220       219       216       215       224
       219       216       215       228       220       215       224       225
       220       215       224       226       220       215       224       227
       220       215       228       229       220       215       228       230
       220       215       228       231       221       220       215       224
       221       220       215       228       222       220       215       224
       222       220       215       228       223       220       215       224
       223       220       215       228       224       215       228       229
       224       215       228       230       224       215       228       231
       225       224       215       228       226       224       215       228
       227       224       215       228       228       231       237       234
       229       228       231       232       229       228       231       233
       229       228       231       237       230       228       231       232
       230       228       231       233       230       228       231       237
       231       237       234       235       231       237       234       236
       231       237       234       238       232       231       237       234
       233       231       237       234       234       238       239       240
       234       238       239       241       234       238       239       242
       235       234       238       239       236       234       238       239
       237       234       238       239       238       239       242       243
       238       239       242       244       238       239       242       250
       239       242       244       245       239       242       250       251
       239       242       250       252       239       242       250       253
       240       239       242       243       240       239       242       244
       240       239       242       250       241       239       242       243
       241       239       242       244       241       239       242       250
       242       244       245       246       242       244       245       247
       242       250       253       254       243       242       244       245
       243       242       250       251       243       242       250       252
       243       242       250       253       244       242       250       251
       244       242       250       252       244       242       250       253
       244       245       247       248       244       245       247       249
       244       245       247       259       245       244       242       250
       245       247       259       260       245       247       259       261
       245       247       259       262       246       245       247       248
       246       245       247       249       246       245       247       259
       247       259       262       263       247       259       262       264
       247       259       262       265       248       247       259       260
       248       247       259       261       248       247       259       262
       249       247       259       260       249       247       259       261
       249       247       259       262       250       253       254       255
       250       253       254       256       251       250       253       254
       252       250       253       254       253       254       256       257
       253       254       256       258       253       254       256       304
       254       256       304       305       254       256       304       306
       254       256       304       307       255       254       256       257
       255       254       256       258       255       254       256       304
       256       304       307       308       256       304       307       309
       256       304       307       310       257       256       304       305
       257       256       304       306       257       256       304       307
       258       256       304       305       258       256       304       306
       258       256       304       307       259       262       265       266
       259       262       265       267       259       262       265       268
       260       259       262       263       260       259       262       264
       260       259       262       265       261       259       262       263
       261       259       262       264       261       259       262       265
       262       265       268       269       262       265       268       270
       262       265       268       271       263       262       265       266
       263       262       265       267       263       262       265       268
       264       262       265       266       264       262       265       267
       264       262       265       268       265       268       271       272
       265       268       271       273       265       268       271       274
       266       265       268       269       266       265       268       270
       266       265       268       271       267       265       268       269
       267       265       268       270       267       265       268       271
       268       271       274       275       268       271       274       276
       268       271       274       277       269       268       271       272
       269       268       271       273       269       268       271       274
       270       268       271       272       270       268       271       273
       270       268       271       274       271       274       277       278
       271       274       277       279       272       271       274       275
       272       271       274       276       272       271       274       277
       273       271       274       275       273       271       274       276
       273       271       274       277       274       277       279       280
       274       277       279       281       275       274       277       278
       275       274       277       279       276       274       277       278
       276       274       277       279       277       279       281       282
       277       279       281       283       277       279       281       284
       278       277       279       280       278       277       279       281
       279       281       284       285       279       281       284       286
       280       279       281       282       280       279       281       283
       280       279       281       284       281       284       286       287
       281       284       286       288       282       281       284       285
       282       281       284       286       283       281       284       285
       283       281       284       286       284       286       288       289
       284       286       288       290       284       286       288       291
       285       284       286       287       285       284       286       288
       286       288       291       292       286       288       291       293
       286       288       291       294       287       286       288       289
       287       286       288       290       287       286       288       291
       288       291       294       295       288       291       294       296
       288       291       294       297       289       288       291       292
       289       288       291       293       289       288       291       294
       290       288       291       292       290       288       291       293
       290       288       291       294       291       294       297       298
       291       294       297       299       291       294       297       300
       292       291       294       295       292       291       294       296
       292       291       294       297       293       291       294       295
       293       291       294       296       293       291       294       297
       294       297       300       301       294       297       300       302
       294       297       300       303       295       294       297       298
       295       294       297       299       295       294       297       300
       296       294       297       298       296       294       297       299
       296       294       297       300       298       297       300       301
       298       297       300       302       298       297       300       303
       299       297       300       301       299       297       300       302
       299       297       300       303       304       307       310       311
       304       307       310       312       304       307       310       313
       305       304       307       308       305       304       307       309
       305       304       307       310       306       304       307       308
       306       304       307       309       306       304       307       310
       307       310       313       314       307       310       313       315
       307       310       313       316       308       307       310       311
       308       307       310       312       308       307       310       313
       309       307       310       311       309       307       310       312
       309       307       310       313       310       313       316       317
       310       313       316       318       310       313       316       319
       311       310       313       314       311       310       313       315
       311       310       313       316       312       310       313       314
       312       310       313       315       312       310       313       316
       313       316       319       320       313       316       319       321
       313       316       319       322       314       313       316       317
       314       313       316       318       314       313       316       319
       315       313       316       317       315       313       316       318
       315       313       316       319       316       319       322       323
       316       319       322       324       316       319       322       325
       317       316       319       320       317       316       319       321
       317       316       319       322       318       316       319       320
       318       316       319       321       318       316       319       322
       319       322       325       326       319       322       325       327
       319       322       325       328       320       319       322       323
       320       319       322       324       320       319       322       325
       321       319       322       323       321       319       322       324
       321       319       322       325       322       325       328       329
       322       325       328       330       322       325       328       331
       323       322       325       326       323       322       325       327
       323       322       325       328       324       322       325       326
       324       322       325       327       324       322       325       328
       325       328       331       332       325       328       331       333
       325       328       331       334       326       325       328       329
       326       325       328       330       326       325       328       331
       327       325       328       329       327       325       328       330
       327       325       328       331       328       331       334       335
       328       331       334       336       328       331       334       337
       329       328       331       332       329       328       331       333
       329       328       331       334       330       328       331       332
       330       328       331       333       330       328       331       334
       331       334       337       338       331       334       337       339
       331       334       337       340       332       331       334       335
       332       331       334       336       332       331       334       337
       333       331       334       335       333       331       334       336
       333       331       334       337       334       337       340       341
       334       337       340       342       334       337       340       343
       335       334       337       338       335       334       337       339
       335       334       337       340       336       334       337       338
       336       334       337       339       336       334       337       340
       337       340       343       344       337       340       343       345
       337       340       343       346       338       337       340       341
       338       337       340       342       338       337       340       343
       339       337       340       341       339       337       340       342
       339       337       340       343       340       343       346       347
       340       343       346       348       340       343       346       349
       341       340       343       344       341       340       343       345
       341       340       343       346       342       340       343       344
       342       340       343       345       342       340       343       346
       343       346       349       350       343       346       349       351
       343       346       349       352       344       343       346       347
       344       343       346       348       344       343       346       349
       345       343       346       347       345       343       346       348
       345       343       346       349       347       346       349       350
       347       346       349       351       347       346       349       352
       348       346       349       350       348       346       349       351
       348       346       349       352       353       357       359       360
       353       357       359       361       353       357       362       363
       353       357       362       364       353       357       362       368
       354       353       357       358       354       353       357       359
       354       353       357       362       355       353       357       358
       355       353       357       359       355       353       357       362
       356       353       357       358       356       353       357       359
       356       353       357       362       357       362       368       365
       358       357       359       360       358       357       359       361
       358       357       362       363       358       357       362       364
       358       357       362       368       359       357       362       363
       359       357       362       364       359       357       362       368
       360       359       357       362       361       359       357       362
       362       368       365       366       362       368       365       367
       362       368       365       369       363       362       368       365
       364       362       368       365       365       369       370       371
       365       369       370       372       365       369       370       373
       366       365       369       370       367       365       369       370
       368       365       369       370       369       370       373       374
       369       370       373       375       369       370       373       381
       370       373       375       376       370       373       381       382
       370       373       381       383       370       373       381       384
       371       370       373       374       371       370       373       375
       371       370       373       381       372       370       373       374
       372       370       373       375       372       370       373       381
       373       375       376       377       373       375       376       378
       373       381       384       385       374       373       375       376
       374       373       381       382       374       373       381       383
       374       373       381       384       375       373       381       382
       375       373       381       383       375       373       381       384
       375       376       378       379       375       376       378       380
       375       376       378       390       376       375       373       381
       376       378       390       391       376       378       390       392
       376       378       390       393       377       376       378       379
       377       376       378       380       377       376       378       390
       378       390       393       394       378       390       393       395
       378       390       393       396       379       378       390       391
       379       378       390       392       379       378       390       393
       380       378       390       391       380       378       390       392
       380       378       390       393       381       384       385       386
       381       384       385       387       382       381       384       385
       383       381       384       385       384       385       387       388
       384       385       387       389       384       385       387       437
       385       387       437       438       385       387       437       439
       385       387       437       440       386       385       387       388
       386       385       387       389       386       385       387       437
       387       437       440       441       387       437       440       442
       387       437       440       443       388       387       437       438
       388       387       437       439       388       387       437       440
       389       387       437       438       389       387       437       439
       389       387       437       440       390       393       396       397
       390       393       396       398       391       390       393       394
       391       390       393       395       391       390       393       396
       392       390       393       394       392       390       393       395
       392       390       393       396       393       396       398       399
       393       396       398       400       394       393       396       397
       394       393       396       398       395       393       396       397
       395       393       396       398       396       398       400       401
       396       398       400       402       396       398       400       403
       397       396       398       399       397       396       398       400
       398       400       403       404       398       400       403       405
       399       398       400       401       399       398       400       402
       399       398       400       403       400       403       405       406
       400       403       405       407       401       400       403       404
       401       400       403       405       402       400       403       404
       402       400       403       405       403       405       407       408
       403       405       407       409       403       405       407       410
       404       403       405       406       404       403       405       407
       405       407       410       411       405       407       410       412
       406       405       407       408       406       405       407       409
       406       405       407       410       407       410       412       413
       407       410       412       414       408       407       410       411
       408       407       410       412       409       407       410       411
       409       407       410       412       410       412       414       415
       410       412       414       416       410       412       414       417
       411       410       412       413       411       410       412       414
       412       414       417       418       412       414       417       419
       413       412       414       415       413       412       414       416
       413       412       414       417       414       417       419       420
       414       417       419       421       415       414       417       418
       415       414       417       419       416       414       417       418
       416       414       417       419       417       419       421       422
       417       419       421       423       417       419       421       424
       418       417       419       420       418       417       419       421
       419       421       424       425       419       421       424       426
       419       421       424       427       420       419       421       422
       420       419       421       423       420       419       421       424
       421       424       427       428       421       424       427       429
       421       424       427       430       422       421       424       425
       422       421       424       426       422       421       424       427
       423       421       424       425       423       421       424       426
       423       421       424       427       424       427       430       431
       424       427       430       432       424       427       430       433
       425       424       427       428       425       424       427       429
       425       424       427       430       426       424       427       428
       426       424       427       429       426       424       427       430
       427       430       433       434       427       430       433       435
       427       430       433       436       428       427       430       431
       428       427       430       432       428       427       430       433
       429       427       430       431       429       427       430       432
       429       427       430       433       431       430       433       434
       431       430       433       435       431       430       433       436
       432       430       433       434       432       430       433       435
       432       430       433       436       437       440       443       444
       437       440       443       445       437       440       443       446
       438       437       440       441       438       437       440       442
       438       437       440       443       439       437       440       441
       439       437       440       442       439       437       440       443
       440       443       446       447       440       443       446       448
       440       443       446       449       441       440       443       444
       441       440       443       445       441       440       443       446
       442       440       443       444       442       440       443       445
       442       440       443       446       443       446       449       450
       443       446       449       451       443       446       449       452
       444       443       446       447       444       443       446       448
       444       443       446       449       445       443       446       447
       445       443       446       448       445       443       446       449
       446       449       452       453       446       449       452       454
       446       449       452       455       447       446       449       450
       447       446       449       451       447       446       449       452
       448       446       449       450       448       446       449       451
       448       446       449       452       449       452       455       456
       449       452       455       457       449       452       455       458
       450       449       452       453       450       449       452       454
       450       449       452       455       451       449       452       453
       451       449       452       454       451       449       452       455
       452       455       458       459       452       455       458       460
       452       455       458       461       453       452       455       456
       453       452       455       457       453       452       455       458
       454       452       455       456       454       452       455       457
       454       452       455       458       455       458       461       462
       455       458       461       463       455       458       461       464
       456       455       458       459       456       455       458       460
       456       455       458       461       457       455       458       459
       457       455       458       460       457       455       458       461
       458       461       464       465       458       461       464       466
       458       461       464       467       459       458       461       462
       459       458       461       463       459       458       461       464
       460       458       461       462       460       458       461       463
       460       458       461       464       461       464       467       468
       461       464       467       469       461       464       467       470
       462       461       464       465       462       461       464       466
       462       461       464       467       463       461       464       465
       463       461       464       466       463       461       464       467
       464       467       470       471       464       467       470       472
       464       467       470       473       465       464       467       468
       465       464       467       469       465       464       467       470
       466       464       467       468       466       464       467       469
       466       464       467       470       467       470       473       474
       467       470       473       475       467       470       473       476
       468       467       470       471       468       467       470       472
       468       467       470       473       469       467       470       471
       469       467       470       472       469       467       470       473
       470       473       476       477       470       473       476       478
       470       473       476       479       471       470       473       474
       471       470       473       475       471       470       473       476
       472       470       473       474       472       470       473       475
       472       470       473       476       473       476       479       480
       473       476       479       481       473       476       479       482
       474       473       476       477       474       473       476       478
       474       473       476       479       475       473       476       477
       475       473       476       478       475       473       476       479
       476       479       482       483       476       479       482       484
       476       479       482       485       477       476       479       480
       477       476       479       481       477       476       479       482
       478       476       479       480       478       476       479       481
       478       476       479       482       480       479       482       483
       480       479       482       484       480       479       482       485
       481       479       482       483       481       479       482       484
       481       479       482       485       486       490       492       493
       486       490       492       494       486       490       495       496
       486       490       495       497       486       490       495       501
       487       486       490       491       487       486       490       492
       487       486       490       495       488       486       490       491
       488       486       490       492       488       486       490       495
       489       486       490       491       489       486       490       492
       489       486       490       495       490       495       501       498
       491       490       492       493       491       490       492       494
       491       490       495       496       491       490       495       497
       491       490       495       501       492       490       495       496
       492       490       495       497       492       490       495       501
       493       492       490       495       494       492       490       495
       495       501       498       499       495       501       498       500
       495       501       498       502       496       495       501       498
       497       495       501       498       498       502       503       504
       498       502       503       505       498       502       503       506
       499       498       502       503       500       498       502       503
       501       498       502       503       502       503       506       507
       502       503       506       508       502       503       506       514
       503       506       508       509       503       506       514       515
       503       506       514       516       503       506       514       517
       504       503       506       507       504       503       506       508
       504       503       506       514       505       503       506       507
       505       503       506       508       505       503       506       514
       506       508       509       510       506       508       509       511
       506       514       517       518       507       506       508       509
       507       506       514       515       507       506       514       516
       507       506       514       517       508       506       514       515
       508       506       514       516       508       506       514       517
       508       509       511       512       508       509       511       513
       508       509       511       523       509       508       506       514
       509       511       523       524       509       511       523       525
       509       511       523       526       510       509       511       512
       510       509       511       513       510       509       511       523
       511       523       526       527       511       523       526       528
       511       523       526       529       512       511       523       524
       512       511       523       525       512       511       523       526
       513       511       523       524       513       511       523       525
       513       511       523       526       514       517       518       519
       514       517       518       520       515       514       517       518
       516       514       517       518       517       518       520       521
       517       518       520       522       517       518       520       570
       518       520       570       571       518       520       570       572
       518       520       570       573       519       518       520       521
       519       518       520       522       519       518       520       570
       520       570       573       574       520       570       573       575
       520       570       573       576       521       520       570       571
       521       520       570       572       521       520       570       573
       522       520       570       571       522       520       570       572
       522       520       570       573       523       526       529       530
       523       526       529       531       524       523       526       527
       524       523       526       528       524       523       526       529
       525       523       526       527       525       523       526       528
       525       523       526       529       526       529       531       532
       526       529       531       533       527       526       529       530
       527       526       529       531       528       526       529       530
       528       526       529       531       529       531       533       534
       529       531       533       535       529       531       533       536
       530       529       531       532       530       529       531       533
       531       533       536       537       531       533       536       538
       532       531       533       534       532       531       533       535
       532       531       533       536       533       536       538       539
       533       536       538       540       534       533       536       537
       534       533       536       538       535       533       536       537
       535       533       536       538       536       538       540       541
       536       538       540       542       536       538       540       543
       537       536       538       539       537       536       538       540
       538       540       543       544       538       540       543       545
       539       538       540       541       539       538       540       542
       539       538       540       543       540       543       545       546
       540       543       545       547       541       540       543       544
       541       540       543       545       542       540       543       544
       542       540       543       545       543       545       547       548
       543       545       547       549       543       545       547       550
       544       543       545       546       544       543       545       547
       545       547       550       551       545       547       550       552
       546       545       547       548       546       545       547       549
       546       545       547       550       547       550       552       553
       547       550       552       554       548       547       550       551
       548       547       550       552       549       547       550       551
       549       547       550       552       550       552       554       555
       550       552       554       556       550       552       554       557
       551       550       552       553       551       550       552       554
       552       554       557       558       552       554       557       559
       552       554       557       560       553       552       554       555
       553       552       554       556       553       552       554       557
       554       557       560       561       554       557       560       562
       554       557       560       563       555       554       557       558
       555       554       557       559       555       554       557       560
       556       554       557       558       556       554       557       559
       556       554       557       560       557       560       563       564
       557       560       563       565       557       560       563       566
       558       557       560       561       558       557       560       562
       558       557       560       563       559       557       560       561
       559       557       560       562       559       557       560       563
       560       563       566       567       560       563       566       568
       560       563       566       569       561       560       563       564
       561       560       563       565       561       560       563       566
       562       560       563       564       562       560       563       565
       562       560       563       566       564       563       566       567
       564       563       566       568       564       563       566       569
       565       563       566       567       565       563       566       568
       565       563       566       569       570       573       576       577
       570       573       576       578       570       573       576       579
       571       570       573       574       571       570       573       575
       571       570       573       576       572       570       573       574
       572       570       573       575       572       570       573       576
       573       576       579       580       573       576       579       581
       573       576       579       582       574       573       576       577
       574       573       576       578       574       573       576       579
       575       573       576       577       575       573       576       578
       575       573       576       579       576       579       582       583
       576       579       582       584       576       579       582       585
       577       576       579       580       577       576       579       581
       577       576       579       582       578       576       579       580
       578       576       579       581       578       576       579       582
       579       582       585       586       579       582       585       587
       579       582       585       588       580       579       582       583
       580       579       582       584       580       579       582       585
       581       579       582       583       581       579       582       584
       581       579       582       585       582       585       588       589
       582       585       588       590       582       585       588       591
       583       582       585       586       583       582       585       587
       583       582       585       588       584       582       585       586
       584       582       585       587       584       582       585       588
       585       588       591       592       585       588       591       593
       585       588       591       594       586       585       588       589
       586       585       588       590       586       585       588       591
       587       585       588       589       587       585       588       590
       587       585       588       591       588       591       594       595
       588       591       594       596       588       591       594       597
       589       588       591       592       589       588       591       593
       589       588       591       594       590       588       591       592
       590       588       591       593       590       588       591       594
       591       594       597       598       591       594       597       599
       591       594       597       600       592       591       594       595
       592       591       594       596       592       591       594       597
       593       591       594       595       593       591       594       596
       593       591       594       597       594       597       600       601
       594       597       600       602       594       597       600       603
       595       594       597       598       595       594       597       599
       595       594       597       600       596       594       597       598
       596       594       597       599       596       594       597       600
       597       600       603       604       597       600       603       605
       597       600       603       606       598       597       600       601
       598       597       600       602       598       597       600       603
       599       597       600       601       599       597       600       602
       599       597       600       603       600       603       606       607
       600       603       606       608       600       603       606       609
       601       600       603       604       601       600       603       605
       601       600       603       606       602       600       603       604
       602       600       603       605       602       600       603       606
       603       606       609       610       603       606       609       611
       603       606       609       612       604       603       606       607
       604       603       606       608       604       603       606       609
       605       603       606       607       605       603       606       608
       605       603       606       609       606       609       612       613
       606       609       612       614       606       609       612       615
       607       606       609       610       607       606       609       611
       607       606       609       612       608       606       609       610
       608       606       609       611       608       606       609       612
       609       612       615       616       609       612       615       617
       609       612       615       618       610       609       612       613
       610       609       612       614       610       609       612       615
       611       609       612       613       611       609       612       614
       611       609       612       615       613       612       615       616
       613       612       615       617       613       612       615       618
       614       612       615       616       614       612       615       617
       614       612       615       618       619       623       626       627
       619       623       626       657       619       665       662       657
       619       665       662       663       619       665       662       664
       620       619       621       622       620       619       623       624
       620       619       623       625       620       619       623       626
       620       619       665       662       620       619       665       666
       620       619       665       667       621       619       623       624
       621       619       623       625       621       619       623       626
       621       619       665       662       621       619       665       666
       621       619       665       667       622       621       619       623
       622       621       619       665       623       619       665       662
       623       619       665       666       623       619       665       667
       623       626       627       628       623       626       627       629
       623       626       657       655       623       626       657       658
       623       626       657       662       624       623       619       665
       624       623       626       627       624       623       626       657
       625       623       619       665       625       623       626       627
       625       623       626       657       626       623       619       665
       626       627       629       630       626       627       629       631
       626       627       629       632       626       657       655       632
       626       657       655       652       626       657       655       656
       626       657       658       659       626       657       658       660
       626       657       658       661       626       657       662       663
       626       657       662       664       626       657       662       665
       627       626       657       655       627       626       657       658
       627       626       657       662       627       629       632       633
       627       629       632       634       627       629       632       655
       628       627       626       657       628       627       629       630
       628       627       629       631       628       627       629       632
       629       627       626       657       629       632       634       635
       629       632       634       636       629       632       634       644
       629       632       655       652       629       632       655       656
       629       632       655       657       630       629       632       633
       630       629       632       634       630       629       632       655
       631       629       632       633       631       629       632       634
       631       629       632       655       632       634       636       637
       632       634       636       638       632       634       636       639
       632       634       644       642       632       634       644       645
       632       634       644       649       632       655       652       649
       632       655       652       653       632       655       652       654
       632       655       657       658       632       655       657       662
       633       632       634       635       633       632       634       636
       633       632       634       644       633       632       655       652
       633       632       655       656       633       632       655       657
       634       632       655       652       634       632       655       656
       634       632       655       657       634       636       639       640
       634       636       639       641       634       636       639       642
       634       644       642       639       634       644       642       643
       634       644       642       668       634       644       645       646
       634       644       645       647       634       644       645       648
       634       644       649       650       634       644       649       651
       634       644       649       652       635       634       632       655
       635       634       636       637       635       634       636       638
       635       634       636       639       635       634       644       642
       635       634       644       645       635       634       644       649
       636       634       632       655       636       634       644       642
       636       634       644       645       636       634       644       649
       636       639       642       643       636       639       642       644
       636       639       642       668       637       636       634       644
       637       636       639       640       637       636       639       641
       637       636       639       642       638       636       634       644
       638       636       639       640       638       636       639       641
       638       636       639       642       639       636       634       644
       639       642       644       645       639       642       644       649
       639       642       668       669       639       642       668       670
       639       642       668       674       640       639       642       643
       640       639       642       644       640       639       642       668
       641       639       642       643       641       639       642       644
       641       639       642       668       642       644       645       646
       642       644       645       647       642       644       645       648
       642       644       649       650       642       644       649       651
       642       644       649       652       642       668       670       671
       642       668       670       672       642       668       670       673
       642       668       674       675       642       668       674       676
       642       668       674       677       643       642       644       645
       643       642       644       649       643       642       668       669
       643       642       668       670       643       642       668       674
       644       634       632       655       644       642       668       669
       644       642       668       670       644       642       668       674
       644       649       652       653       644       649       652       654
       644       649       652       655       645       644       642       668
       645       644       649       650       645       644       649       651
       645       644       649       652       646       645       644       649
       647       645       644       649       648       645       644       649
       649       644       642       668       649       652       655       656
       649       652       655       657       650       649       652       653
       650       649       652       654       650       649       652       655
       651       649       652       653       651       649       652       654
       651       649       652       655       652       655       657       658
       652       655       657       662       653       652       655       656
       653       652       655       657       654       652       655       656
       654       652       655       657       655       657       658       659
       655       657       658       660       655       657       658       661
       655       657       662       663       655       657       662       664
       655       657       662       665       656       655       657       658
       656       655       657       662       657       662       665       666
       657       662       665       667       658       657       662       663
       658       657       662       664       658       657       662       665
       659       658       657       662       660       658       657       662
       661       658       657       662       663       662       665       666
       663       662       665       667       664       662       665       666
       664       662       665       667       668       674       677       678
       668       674       677       679       668       674       677       680
       669       668       670       671       669       668       670       672
       669       668       670       673       669       668       674       675
       669       668       674       676       669       668       674       677
       670       668       674       675       670       668       674       676
       670       668       674       677       671       670       668       674
       672       670       668       674       673       670       668       674
       674       677       680       681       674       677       680       682
       674       677       680       683       675       674       677       678
       675       674       677       679       675       674       677       680
       676       674       677       678       676       674       677       679
       676       674       677       680       677       680       683       684
       677       680       683       685       677       680       683       689
       678       677       680       681       678       677       680       682
       678       677       680       683       679       677       680       681
       679       677       680       682       679       677       680       683
       680       683       685       686       680       683       685       687
       680       683       685       688       680       683       689       690
       680       683       689       691       680       683       689       692
       681       680       683       684       681       680       683       685
       681       680       683       689       682       680       683       684
       682       680       683       685       682       680       683       689
       684       683       685       686       684       683       685       687
       684       683       685       688       684       683       689       690
       684       683       689       691       684       683       689       692
       685       683       689       690       685       683       689       691
       685       683       689       692       686       685       683       689
       687       685       683       689       688       685       683       689
       693       706       709       710       693       706       709       711
       693       706       709       715       694       693       698       699
       694       693       698       700       694       693       698       701
       694       693       702       703       694       693       702       704
       694       693       702       705       694       693       706       707
       694       693       706       708       694       693       706       709
       695       694       693       698       695       694       693       702
       695       694       693       706       696       694       693       698
       696       694       693       702       696       694       693       706
       697       694       693       698       697       694       693       702
       697       694       693       706       698       693       702       703
       698       693       702       704       698       693       702       705
       698       693       706       707       698       693       706       708
       698       693       706       709       699       698       693       702
       699       698       693       706       700       698       693       702
       700       698       693       706       701       698       693       702
       701       698       693       706       702       693       706       707
       702       693       706       708       702       693       706       709
       703       702       693       706       704       702       693       706
       705       702       693       706       706       709       715       712
       707       706       709       710       707       706       709       711
       707       706       709       715       708       706       709       710
       708       706       709       711       708       706       709       715
       709       715       712       713       709       715       712       714
       709       715       712       716       710       709       715       712
       711       709       715       712       712       716       717       718
       712       716       717       719       712       716       717       720
       713       712       716       717       714       712       716       717
       715       712       716       717       716       717       720       721
       716       717       720       722       716       717       720       728
       717       720       722       723       717       720       728       729
       717       720       728       730       717       720       728       731
       718       717       720       721       718       717       720       722
       718       717       720       728       719       717       720       721
       719       717       720       722       719       717       720       728
       720       722       723       724       720       722       723       725
       720       728       731       732       721       720       722       723
       721       720       728       729       721       720       728       730
       721       720       728       731       722       720       728       729
       722       720       728       730       722       720       728       731
       722       723       725       726       722       723       725       727
       722       723       725       737       723       722       720       728
       723       725       737       738       723       725       737       739
       723       725       737       740       724       723       725       726
       724       723       725       727       724       723       725       737
       725       737       740       741       725       737       740       742
       725       737       740       743       726       725       737       738
       726       725       737       739       726       725       737       740
       727       725       737       738       727       725       737       739
       727       725       737       740       728       731       732       733
       728       731       732       734       729       728       731       732
       730       728       731       732       731       732       734       735
       731       732       734       736       731       732       734       782
       732       734       782       783       732       734       782       784
       732       734       782       785       733       732       734       735
       733       732       734       736       733       732       734       782
       734       782       785       786       734       782       785       787
       734       782       785       788       735       734       782       783
       735       734       782       784       735       734       782       785
       736       734       782       783       736       734       782       784
       736       734       782       785       737       740       743       744
       737       740       743       745       737       740       743       746
       738       737       740       741       738       737       740       742
       738       737       740       743       739       737       740       741
       739       737       740       742       739       737       740       743
       740       743       746       747       740       743       746       748
       740       743       746       749       741       740       743       744
       741       740       743       745       741       740       743       746
       742       740       743       744       742       740       743       745
       742       740       743       746       743       746       749       750
       743       746       749       751       743       746       749       752
       744       743       746       747       744       743       746       748
       744       743       746       749       745       743       746       747
       745       743       746       748       745       743       746       749
       746       749       752       753       746       749       752       754
       746       749       752       755       747       746       749       750
       747       746       749       751       747       746       749       752
       748       746       749       750       748       746       749       751
       748       746       749       752       749       752       755       756
       749       752       755       757       750       749       752       753
       750       749       752       754       750       749       752       755
       751       749       752       753       751       749       752       754
       751       749       752       755       752       755       757       758
       752       755       757       759       753       752       755       756
       753       752       755       757       754       752       755       756
       754       752       755       757       755       757       759       760
       755       757       759       761       755       757       759       762
       756       755       757       758       756       755       757       759
       757       759       762       763       757       759       762       764
       758       757       759       760       758       757       759       761
       758       757       759       762       759       762       764       765
       759       762       764       766       760       759       762       763
       760       759       762       764       761       759       762       763
       761       759       762       764       762       764       766       767
       762       764       766       768       762       764       766       769
       763       762       764       765       763       762       764       766
       764       766       769       770       764       766       769       771
       764       766       769       772       765       764       766       767
       765       764       766       768       765       764       766       769
       766       769       772       773       766       769       772       774
       766       769       772       775       767       766       769       770
       767       766       769       771       767       766       769       772
       768       766       769       770       768       766       769       771
       768       766       769       772       769       772       775       776
       769       772       775       777       769       772       775       778
       770       769       772       773       770       769       772       774
       770       769       772       775       771       769       772       773
       771       769       772       774       771       769       772       775
       772       775       778       779       772       775       778       780
       772       775       778       781       773       772       775       776
       773       772       775       777       773       772       775       778
       774       772       775       776       774       772       775       777
       774       772       775       778       776       775       778       779
       776       775       778       780       776       775       778       781
       777       775       778       779       777       775       778       780
       777       775       778       781       782       785       788       789
       782       785       788       790       782       785       788       791
       783       782       785       786       783       782       785       787
       783       782       785       788       784       782       785       786
       784       782       785       787       784       782       785       788
       785       788       791       792       785       788       791       793
       785       788       791       794       786       785       788       789
       786       785       788       790       786       785       788       791
       787       785       788       789       787       785       788       790
       787       785       788       791       788       791       794       795
       788       791       794       796       788       791       794       797
       789       788       791       792       789       788       791       793
       789       788       791       794       790       788       791       792
       790       788       791       793       790       788       791       794
       791       794       797       798       791       794       797       799
       791       794       797       800       792       791       794       795
       792       791       794       796       792       791       794       797
       793       791       794       795       793       791       794       796
       793       791       794       797       794       797       800       801
       794       797       800       802       794       797       800       803
       795       794       797       798       795       794       797       799
       795       794       797       800       796       794       797       798
       796       794       797       799       796       794       797       800
       797       800       803       804       797       800       803       805
       797       800       803       806       798       797       800       801
       798       797       800       802       798       797       800       803
       799       797       800       801       799       797       800       802
       799       797       800       803       800       803       806       807
       800       803       806       808       800       803       806       809
       801       800       803       804       801       800       803       805
       801       800       803       806       802       800       803       804
       802       800       803       805       802       800       803       806
       803       806       809       810       803       806       809       811
       803       806       809       812       804       803       806       807
       804       803       806       808       804       803       806       809
       805       803       806       807       805       803       806       808
       805       803       806       809       806       809       812       813
       806       809       812       814       806       809       812       815
       807       806       809       810       807       806       809       811
       807       806       809       812       808       806       809       810
       808       806       809       811       808       806       809       812
       809       812       815       816       809       812       815       817
       809       812       815       818       810       809       812       813
       810       809       812       814       810       809       812       815
       811       809       812       813       811       809       812       814
       811       809       812       815       812       815       818       819
       812       815       818       820       812       815       818       821
       813       812       815       816       813       812       815       817
       813       812       815       818       814       812       815       816
       814       812       815       817       814       812       815       818
       815       818       821       822       815       818       821       823
       815       818       821       824       816       815       818       819
       816       815       818       820       816       815       818       821
       817       815       818       819       817       815       818       820
       817       815       818       821       818       821       824       825
       818       821       824       826       818       821       824       827
       819       818       821       822       819       818       821       823
       819       818       821       824       820       818       821       822
       820       818       821       823       820       818       821       824
       821       824       827       828       821       824       827       829
       821       824       827       830       822       821       824       825
       822       821       824       826       822       821       824       827
       823       821       824       825       823       821       824       826
       823       821       824       827       825       824       827       828
       825       824       827       829       825       824       827       830
       826       824       827       828       826       824       827       829
       826       824       827       830       831       844       847       848
       831       844       847       849       831       844       847       854
       832       831       836       837       832       831       836       838
       832       831       836       839       832       831       840       841
       832       831       840       842       832       831       840       843
       832       831       844       845       832       831       844       846
       832       831       844       847       833       832       831       836
       833       832       831       840       833       832       831       844
       834       832       831       836       834       832       831       840
       834       832       831       844       835       832       831       836
       835       832       831       840       835       832       831       844
       836       831       840       841       836       831       840       842
       836       831       840       843       836       831       844       845
       836       831       844       846       836       831       844       847
       837       836       831       840       837       836       831       844
       838       836       831       840       838       836       831       844
       839       836       831       840       839       836       831       844
       840       831       844       845       840       831       844       846
       840       831       844       847       841       840       831       844
       842       840       831       844       843       840       831       844
       844       847       854       850       845       844       847       848
       845       844       847       849       845       844       847       854
       846       844       847       848       846       844       847       849
       846       844       847       854       847       854       850       851
       847       854       850       852       847       854       850       853
       848       847       854       850       849       847       854       850
       850       853       855       856       850       853       855       857
       850       853       855       860       851       850       853       855
       852       850       853       855       853       855       860       858
       853       855       860       861       853       855       860       862
       854       850       853       855       855       860       858       859
       855       860       858       910       855       860       862       863
       855       860       862       864       855       860       862       866
       856       855       860       858       856       855       860       861
       856       855       860       862       857       855       860       858
       857       855       860       861       857       855       860       862
       858       860       862       863       858       860       862       864
       858       860       862       866       858       910       912       913
       858       910       912       914       858       910       912       915
       859       858       860       861       859       858       860       862
       859       858       910       911       859       858       910       912
       860       858       910       911       860       858       910       912
       860       862       864       865       860       862       866       867
       860       862       866       868       861       860       858       910
       861       860       862       863       861       860       862       864
       861       860       862       866       862       860       858       910
       862       866       868       869       862       866       868       870
       863       862       864       865       863       862       866       867
       863       862       866       868       864       862       866       867
       864       862       866       868       865       864       862       866
       866       868       870       871       866       868       870       872
       866       868       870       873       867       866       868       869
       867       866       868       870       868       870       873       874
       868       870       873       875       868       870       873       876
       869       868       870       871       869       868       870       872
       869       868       870       873       870       873       876       877
       870       873       876       878       870       873       876       879
       871       870       873       874       871       870       873       875
       871       870       873       876       872       870       873       874
       872       870       873       875       872       870       873       876
       873       876       879       880       873       876       879       881
       873       876       879       882       874       873       876       877
       874       873       876       878       874       873       876       879
       875       873       876       877       875       873       876       878
       875       873       876       879       876       879       882       883
       876       879       882       884       876       879       882       885
       877       876       879       880       877       876       879       881
       877       876       879       882       878       876       879       880
       878       876       879       881       878       876       879       882
       879       882       885       886       879       882       885       887
       879       882       885       888       880       879       882       883
       880       879       882       884       880       879       882       885
       881       879       882       883       881       879       882       884
       881       879       882       885       882       885       888       889
       882       885       888       890       882       885       888       891
       883       882       885       886       883       882       885       887
       883       882       885       888       884       882       885       886
       884       882       885       887       884       882       885       888
       885       888       891       892       885       888       891       893
       885       888       891       894       886       885       888       889
       886       885       888       890       886       885       888       891
       887       885       888       889       887       885       888       890
       887       885       888       891       888       891       894       895
       888       891       894       896       888       891       894       897
       889       888       891       892       889       888       891       893
       889       888       891       894       890       888       891       892
       890       888       891       893       890       888       891       894
       891       894       897       898       891       894       897       899
       891       894       897       900       892       891       894       895
       892       891       894       896       892       891       894       897
       893       891       894       895       893       891       894       896
       893       891       894       897       894       897       900       901
       894       897       900       902       894       897       900       903
       895       894       897       898       895       894       897       899
       895       894       897       900       896       894       897       898
       896       894       897       899       896       894       897       900
       897       900       903       904       897       900       903       905
       897       900       903       906       898       897       900       901
       898       897       900       902       898       897       900       903
       899       897       900       901       899       897       900       902
       899       897       900       903       900       903       906       907
       900       903       906       908       900       903       906       909
       901       900       903       904       901       900       903       905
       901       900       903       906       902       900       903       904
       902       900       903       905       902       900       903       906
       904       903       906       907       904       903       906       908
       904       903       906       909       905       903       906       907
       905       903       906       908       905       903       906       909
       910       912       915       916       910       912       915       917
       910       912       915       918       911       910       912       913
       911       910       912       914       911       910       912       915
       912       915       918       919       912       915       918       920
       912       915       918       921       913       912       915       916
       913       912       915       917       913       912       915       918
       914       912       915       916       914       912       915       917
       914       912       915       918       915       918       921       922
       915       918       921       923       915       918       921       924
       916       915       918       919       916       915       918       920
       916       915       918       921       917       915       918       919
       917       915       918       920       917       915       918       921
       918       921       924       925       918       921       924       926
       918       921       924       927       919       918       921       922
       919       918       921       923       919       918       921       924
       920       918       921       922       920       918       921       923
       920       918       921       924       921       924       927       928
       921       924       927       929       921       924       927       930
       922       921       924       925       922       921       924       926
       922       921       924       927       923       921       924       925
       923       921       924       926       923       921       924       927
       924       927       930       931       924       927       930       932
       924       927       930       933       925       924       927       928
       925       924       927       929       925       924       927       930
       926       924       927       928       926       924       927       929
       926       924       927       930       927       930       933       934
       927       930       933       935       928       927       930       931
       928       927       930       932       928       927       930       933
       929       927       930       931       929       927       930       932
       929       927       930       933       930       933       935       936
       930       933       935       937       931       930       933       934
       931       930       933       935       932       930       933       934
       932       930       933       935       933       935       937       938
       933       935       937       939       933       935       937       940
       934       933       935       936       934       933       935       937
       935       937       940       941       935       937       940       942
       935       937       940       943       936       935       937       938
       936       935       937       939       936       935       937       940
       937       940       943       944       937       940       943       945
       937       940       943       946       938       937       940       941
       938       937       940       942       938       937       940       943
       939       937       940       941       939       937       940       942
       939       937       940       943       940       943       946       947
       940       943       946       948       940       943       946       949
       941       940       943       944       941       940       943       945
       941       940       943       946       942       940       943       944
       942       940       943       945       942       940       943       946
       943       946       949       950       943       946       949       951
       943       946       949       952       944       943       946       947
       944       943       946       948       944       943       946       949
       945       943       946       947       945       943       946       948
       945       943       946       949       946       949       952       953
       946       949       952       954       946       949       952       955
       947       946       949       950       947       946       949       951
       947       946       949       952       948       946       949       950
       948       946       949       951       948       946       949       952
       949       952       955       956       949       952       955       957
       949       952       955       958       950       949       952       953
       950       949       952       954       950       949       952       955
       951       949       952       953       951       949       952       954
       951       949       952       955       952       955       958       959
       952       955       958       960       952       955       958       961
       953       952       955       956       953       952       955       957
       953       952       955       958       954       952       955       956
       954       952       955       957       954       952       955       958
       956       955       958       959       956       955       958       960
       956       955       958       961       957       955       958       959
       957       955       958       960       957       955       958       961
       962       966       969       970       962       966       969       971
       962       966       969       975       963       962       966       967
       963       962       966       968       963       962       966       969
       964       962       966       967       964       962       966       968
       964       962       966       969       965       962       966       967
       965       962       966       968       965       962       966       969
       966       969       975       972       967       966       969       970
       967       966       969       971       967       966       969       975
       968       966       969       970       968       966       969       971
       968       966       969       975       969       975       972       973
       969       975       972       974       969       975       972       976
       970       969       975       972       971       969       975       972
       972       976       977       978       972       976       977       979
       972       976       977       980       973       972       976       977
       974       972       976       977       975       972       976       977
       976       977       980       981       976       977       980       982
       976       977       980       988       977       980       982       983
       977       980       988       989       977       980       988       990
       977       980       988       991       978       977       980       981
       978       977       980       982       978       977       980       988
       979       977       980       981       979       977       980       982
       979       977       980       988       980       982       983       984
       980       982       983       985       980       988       991       992
       981       980       982       983       981       980       988       989
       981       980       988       990       981       980       988       991
       982       980       988       989       982       980       988       990
       982       980       988       991       982       983       985       986
       982       983       985       987       982       983       985       997
       983       982       980       988       983       985       997       998
       983       985       997       999       983       985       997      1000
       984       983       985       986       984       983       985       987
       984       983       985       997       985       997      1000      1001
       985       997      1000      1002       985       997      1000      1003
       986       985       997       998       986       985       997       999
       986       985       997      1000       987       985       997       998
       987       985       997       999       987       985       997      1000
       988       991       992       993       988       991       992       994
       989       988       991       992       990       988       991       992
       991       992       994       995       991       992       994       996
       991       992       994      1044       992       994      1044      1045
       992       994      1044      1046       992       994      1044      1047
       993       992       994       995       993       992       994       996
       993       992       994      1044       994      1044      1047      1048
       994      1044      1047      1049       994      1044      1047      1050
       995       994      1044      1045       995       994      1044      1046
       995       994      1044      1047       996       994      1044      1045
       996       994      1044      1046       996       994      1044      1047
       997      1000      1003      1004       997      1000      1003      1005
       998       997      1000      1001       998       997      1000      1002
       998       997      1000      1003       999       997      1000      1001
       999       997      1000      1002       999       997      1000      1003
      1000      1003      1005      1006      1000      1003      1005      1007
      1001      1000      1003      1004      1001      1000      1003      1005
      1002      1000      1003      1004      1002      1000      1003      1005
      1003      1005      1007      1008      1003      1005      1007      1009
      1003      1005      1007      1010      1004      1003      1005      1006
      1004      1003      1005      1007      1005      1007      1010      1011
      1005      1007      1010      1012      1006      1005      1007      1008
      1006      1005      1007      1009      1006      1005      1007      1010
      1007      1010      1012      1013      1007      1010      1012      1014
      1008      1007      1010      1011      1008      1007      1010      1012
      1009      1007      1010      1011      1009      1007      1010      1012
      1010      1012      1014      1015      1010      1012      1014      1016
      1010      1012      1014      1017      1011      1010      1012      1013
      1011      1010      1012      1014      1012      1014      1017      1018
      1012      1014      1017      1019      1013      1012      1014      1015
      1013      1012      1014      1016      1013      1012      1014      1017
      1014      1017      1019      1020      1014      1017      1019      1021
      1015      1014      1017      1018      1015      1014      1017      1019
      1016      1014      1017      1018      1016      1014      1017      1019
      1017      1019      1021      1022      1017      1019      1021      1023
      1017      1019      1021      1024      1018      1017      1019      1020
      1018      1017      1019      1021      1019      1021      1024      1025
      1019      1021      1024      1026      1020      1019      1021      1022
      1020      1019      1021      1023      1020      1019      1021      1024
      1021      1024      1026      1027      1021      1024      1026      1028
      1022      1021      1024      1025      1022      1021      1024      1026
      1023      1021      1024      1025      1023      1021      1024      1026
      1024      1026      1028      1029      1024      1026      1028      1030
      1024      1026      1028      1031      1025      1024      1026      1027
      1025      1024      1026      1028      1026      1028      1031      1032
      1026      1028      1031      1033      1026      1028      1031      1034
      1027      1026      1028      1029      1027      1026      1028      1030
      1027      1026      1028      1031      1028      1031      1034      1035
      1028      1031      1034      1036      1028      1031      1034      1037
      1029      1028      1031      1032      1029      1028      1031      1033
      1029      1028      1031      1034      1030      1028      1031      1032
      1030      1028      1031      1033      1030      1028      1031      1034
      1031      1034      1037      1038      1031      1034      1037      1039
      1031      1034      1037      1040      1032      1031      1034      1035
      1032      1031      1034      1036      1032      1031      1034      1037
      1033      1031      1034      1035      1033      1031      1034      1036
      1033      1031      1034      1037      1034      1037      1040      1041
      1034      1037      1040      1042      1034      1037      1040      1043
      1035      1034      1037      1038      1035      1034      1037      1039
      1035      1034      1037      1040      1036      1034      1037      1038
      1036      1034      1037      1039      1036      1034      1037      1040
      1038      1037      1040      1041      1038      1037      1040      1042
      1038      1037      1040      1043      1039      1037      1040      1041
      1039      1037      1040      1042      1039      1037      1040      1043
      1044      1047      1050      1051      1044      1047      1050      1052
      1044      1047      1050      1053      1045      1044      1047      1048
      1045      1044      1047      1049      1045      1044      1047      1050
      1046      1044      1047      1048      1046      1044      1047      1049
      1046      1044      1047      1050      1047      1050      1053      1054
      1047      1050      1053      1055      1047      1050      1053      1056
      1048      1047      1050      1051      1048      1047      1050      1052
      1048      1047      1050      1053      1049      1047      1050      1051
      1049      1047      1050      1052      1049      1047      1050      1053
      1050      1053      1056      1057      1050      1053      1056      1058
      1050      1053      1056      1059      1051      1050      1053      1054
      1051      1050      1053      1055      1051      1050      1053      1056
      1052      1050      1053      1054      1052      1050      1053      1055
      1052      1050      1053      1056      1053      1056      1059      1060
      1053      1056      1059      1061      1053      1056      1059      1062
      1054      1053      1056      1057      1054      1053      1056      1058
      1054      1053      1056      1059      1055      1053      1056      1057
      1055      1053      1056      1058      1055      1053      1056      1059
      1056      1059      1062      1063      1056      1059      1062      1064
      1056      1059      1062      1065      1057      1056      1059      1060
      1057      1056      1059      1061      1057      1056      1059      1062
      1058      1056      1059      1060      1058      1056      1059      1061
      1058      1056      1059      1062      1059      1062      1065      1066
      1059      1062      1065      1067      1059      1062      1065      1068
      1060      1059      1062      1063      1060      1059      1062      1064
      1060      1059      1062      1065      1061      1059      1062      1063
      1061      1059      1062      1064      1061      1059      1062      1065
      1062      1065      1068      1069      1062      1065      1068      1070
      1062      1065      1068      1071      1063      1062      1065      1066
      1063      1062      1065      1067      1063      1062      1065      1068
      1064      1062      1065      1066      1064      1062      1065      1067
      1064      1062      1065      1068      1065      1068      1071      1072
      1065      1068      1071      1073      1065      1068      1071      1074
      1066      1065      1068      1069      1066      1065      1068      1070
      1066      1065      1068      1071      1067      1065      1068      1069
      1067      1065      1068      1070      1067      1065      1068      1071
      1068      1071      1074      1075      1068      1071      1074      1076
      1068      1071      1074      1077      1069      1068      1071      1072
      1069      1068      1071      1073      1069      1068      1071      1074
      1070      1068      1071      1072      1070      1068      1071      1073
      1070      1068      1071      1074      1071      1074      1077      1078
      1071      1074      1077      1079      1071      1074      1077      1080
      1072      1071      1074      1075      1072      1071      1074      1076
      1072      1071      1074      1077      1073      1071      1074      1075
      1073      1071      1074      1076      1073      1071      1074      1077
      1074      1077      1080      1081      1074      1077      1080      1082
      1074      1077      1080      1083      1075      1074      1077      1078
      1075      1074      1077      1079      1075      1074      1077      1080
      1076      1074      1077      1078      1076      1074      1077      1079
      1076      1074      1077      1080      1077      1080      1083      1084
      1077      1080      1083      1085      1077      1080      1083      1086
      1078      1077      1080      1081      1078      1077      1080      1082
      1078      1077      1080      1083      1079      1077      1080      1081
      1079      1077      1080      1082      1079      1077      1080      1083
      1080      1083      1086      1087      1080      1083      1086      1088
      1080      1083      1086      1089      1081      1080      1083      1084
      1081      1080      1083      1085      1081      1080      1083      1086
      1082      1080      1083      1084      1082      1080      1083      1085
      1082      1080      1083      1086      1083      1086      1089      1090
      1083      1086      1089      1091      1083      1086      1089      1092
      1084      1083      1086      1087      1084      1083      1086      1088
      1084      1083      1086      1089      1085      1083      1086      1087
      1085      1083      1086      1088      1085      1083      1086      1089
      1087      1086      1089      1090      1087      1086      1089      1091
      1087      1086      1089      1092      1088      1086      1089      1090
      1088      1086      1089      1091      1088      1086      1089      1092
      1093      1106      1109      1110      1093      1106      1109      1111
      1093      1106      1109      1116      1094      1093      1098      1099
      1094      1093      1098      1100      1094      1093      1098      1101
      1094      1093      1102      1103      1094      1093      1102      1104
      1094      1093      1102      1105      1094      1093      1106      1107
      1094      1093      1106      1108      1094      1093      1106      1109
      1095      1094      1093      1098      1095      1094      1093      1102
      1095      1094      1093      1106      1096      1094      1093      1098
      1096      1094      1093      1102      1096      1094      1093      1106
      1097      1094      1093      1098      1097      1094      1093      1102
      1097      1094      1093      1106      1098      1093      1102      1103
      1098      1093      1102      1104      1098      1093      1102      1105
      1098      1093      1106      1107      1098      1093      1106      1108
      1098      1093      1106      1109      1099      1098      1093      1102
      1099      1098      1093      1106      1100      1098      1093      1102
      1100      1098      1093      1106      1101      1098      1093      1102
      1101      1098      1093      1106      1102      1093      1106      1107
      1102      1093      1106      1108      1102      1093      1106      1109
      1103      1102      1093      1106      1104      1102      1093      1106
      1105      1102      1093      1106      1106      1109      1116      1112
      1107      1106      1109      1110      1107      1106      1109      1111
      1107      1106      1109      1116      1108      1106      1109      1110
      1108      1106      1109      1111      1108      1106      1109      1116
      1109      1116      1112      1113      1109      1116      1112      1114
      1109      1116      1112      1115      1110      1109      1116      1112
      1111      1109      1116      1112      1112      1115      1117      1118
      1112      1115      1117      1119      1112      1115      1117      1122
      1113      1112      1115      1117      1114      1112      1115      1117
      1115      1117      1122      1120      1115      1117      1122      1123
      1115      1117      1122      1124      1116      1112      1115      1117
      1117      1122      1120      1121      1117      1122      1120      1172
      1117      1122      1124      1125      1117      1122      1124      1126
      1117      1122      1124      1128      1118      1117      1122      1120
      1118      1117      1122      1123      1118      1117      1122      1124
      1119      1117      1122      1120      1119      1117      1122      1123
      1119      1117      1122      1124      1120      1122      1124      1125
      1120      1122      1124      1126      1120      1122      1124      1128
      1120      1172      1174      1175      1120      1172      1174      1176
      1120      1172      1174      1177      1121      1120      1122      1123
      1121      1120      1122      1124      1121      1120      1172      1173
      1121      1120      1172      1174      1122      1120      1172      1173
      1122      1120      1172      1174      1122      1124      1126      1127
      1122      1124      1128      1129      1122      1124      1128      1130
      1123      1122      1120      1172      1123      1122      1124      1125
      1123      1122      1124      1126      1123      1122      1124      1128
      1124      1122      1120      1172      1124      1128      1130      1131
      1124      1128      1130      1132      1125      1124      1126      1127
      1125      1124      1128      1129      1125      1124      1128      1130
      1126      1124      1128      1129      1126      1124      1128      1130
      1127      1126      1124      1128      1128      1130      1132      1133
      1128      1130      1132      1134      1128      1130      1132      1135
      1129      1128      1130      1131      1129      1128      1130      1132
      1130      1132      1135      1136      1130      1132      1135      1137
      1130      1132      1135      1138      1131      1130      1132      1133
      1131      1130      1132      1134      1131      1130      1132      1135
      1132      1135      1138      1139      1132      1135      1138      1140
      1132      1135      1138      1141      1133      1132      1135      1136
      1133      1132      1135      1137      1133      1132      1135      1138
      1134      1132      1135      1136      1134      1132      1135      1137
      1134      1132      1135      1138      1135      1138      1141      1142
      1135      1138      1141      1143      1135      1138      1141      1144
      1136      1135      1138      1139      1136      1135      1138      1140
      1136      1135      1138      1141      1137      1135      1138      1139
      1137      1135      1138      1140      1137      1135      1138      1141
      1138      1141      1144      1145      1138      1141      1144      1146
      1138      1141      1144      1147      1139      1138      1141      1142
      1139      1138      1141      1143      1139      1138      1141      1144
      1140      1138      1141      1142      1140      1138      1141      1143
      1140      1138      1141      1144      1141      1144      1147      1148
      1141      1144      1147      1149      1141      1144      1147      1150
      1142      1141      1144      1145      1142      1141      1144      1146
      1142      1141      1144      1147      1143      1141      1144      1145
      1143      1141      1144      1146      1143      1141      1144      1147
      1144      1147      1150      1151      1144      1147      1150      1152
      1144      1147      1150      1153      1145      1144      1147      1148
      1145      1144      1147      1149      1145      1144      1147      1150
      1146      1144      1147      1148      1146      1144      1147      1149
      1146      1144      1147      1150      1147      1150      1153      1154
      1147      1150      1153      1155      1147      1150      1153      1156
      1148      1147      1150      1151      1148      1147      1150      1152
      1148      1147      1150      1153      1149      1147      1150      1151
      1149      1147      1150      1152      1149      1147      1150      1153
      1150      1153      1156      1157      1150      1153      1156      1158
      1150      1153      1156      1159      1151      1150      1153      1154
      1151      1150      1153      1155      1151      1150      1153      1156
      1152      1150      1153      1154      1152      1150      1153      1155
      1152      1150      1153      1156      1153      1156      1159      1160
      1153      1156      1159      1161      1153      1156      1159      1162
      1154      1153      1156      1157      1154      1153      1156      1158
      1154      1153      1156      1159      1155      1153      1156      1157
      1155      1153      1156      1158      1155      1153      1156      1159
      1156      1159      1162      1163      1156      1159      1162      1164
      1156      1159      1162      1165      1157      1156      1159      1160
      1157      1156      1159      1161      1157      1156      1159      1162
      1158      1156      1159      1160      1158      1156      1159      1161
      1158      1156      1159      1162      1159      1162      1165      1166
      1159      1162      1165      1167      1159      1162      1165      1168
      1160      1159      1162      1163      1160      1159      1162      1164
      1160      1159      1162      1165      1161      1159      1162      1163
      1161      1159      1162      1164      1161      1159      1162      1165
      1162      1165      1168      1169      1162      1165      1168      1170
      1162      1165      1168      1171      1163      1162      1165      1166
      1163      1162      1165      1167      1163      1162      1165      1168
      1164      1162      1165      1166      1164      1162      1165      1167
      1164      1162      1165      1168      1166      1165      1168      1169
      1166      1165      1168      1170      1166      1165      1168      1171
      1167      1165      1168      1169      1167      1165      1168      1170
      1167      1165      1168      1171      1172      1174      1177      1178
      1172      1174      1177      1179      1172      1174      1177      1180
      1173      1172      1174      1175      1173      1172      1174      1176
      1173      1172      1174      1177      1174      1177      1180      1181
      1174      1177      1180      1182      1174      1177      1180      1183
      1175      1174      1177      1178      1175      1174      1177      1179
      1175      1174      1177      1180      1176      1174      1177      1178
      1176      1174      1177      1179      1176      1174      1177      1180
      1177      1180      1183      1184      1177      1180      1183      1185
      1177      1180      1183      1186      1178      1177      1180      1181
      1178      1177      1180      1182      1178      1177      1180      1183
      1179      1177      1180      1181      1179      1177      1180      1182
      1179      1177      1180      1183      1180      1183      1186      1187
      1180      1183      1186      1188      1180      1183      1186      1189
      1181      1180      1183      1184      1181      1180      1183      1185
      1181      1180      1183      1186      1182      1180      1183      1184
      1182      1180      1183      1185      1182      1180      1183      1186
      1183      1186      1189      1190      1183      1186      1189      1191
      1183      1186      1189      1192      1184      1183      1186      1187
      1184      1183      1186      1188      1184      1183      1186      1189
      1185      1183      1186      1187      1185      1183      1186      1188
      1185      1183      1186      1189      1186      1189      1192      1193
      1186      1189      1192      1194      1186      1189      1192      1195
      1187      1186      1189      1190      1187      1186      1189      1191
      1187      1186      1189      1192      1188      1186      1189      1190
      1188      1186      1189      1191      1188      1186      1189      1192
      1189      1192      1195      1196      1189      1192      1195      1197
      1190      1189      1192      1193      1190      1189      1192      1194
      1190      1189      1192      1195      1191      1189      1192      1193
      1191      1189      1192      1194      1191      1189      1192      1195
      1192      1195      1197      1198      1192      1195      1197      1199
      1193      1192      1195      1196      1193      1192      1195      1197
      1194      1192      1195      1196      1194      1192      1195      1197
      1195      1197      1199      1200      1195      1197      1199      1201
      1195      1197      1199      1202      1196      1195      1197      1198
      1196      1195      1197      1199      1197      1199      1202      1203
      1197      1199      1202      1204      1197      1199      1202      1205
      1198      1197      1199      1200      1198      1197      1199      1201
      1198      1197      1199      1202      1199      1202      1205      1206
      1199      1202      1205      1207      1199      1202      1205      1208
      1200      1199      1202      1203      1200      1199      1202      1204
      1200      1199      1202      1205      1201      1199      1202      1203
      1201      1199      1202      1204      1201      1199      1202      1205
      1202      1205      1208      1209      1202      1205      1208      1210
      1202      1205      1208      1211      1203      1202      1205      1206
      1203      1202      1205      1207      1203      1202      1205      1208
      1204      1202      1205      1206      1204      1202      1205      1207
      1204      1202      1205      1208      1205      1208      1211      1212
      1205      1208      1211      1213      1205      1208      1211      1214
      1206      1205      1208      1209      1206      1205      1208      1210
      1206      1205      1208      1211      1207      1205      1208      1209
      1207      1205      1208      1210      1207      1205      1208      1211
      1208      1211      1214      1215      1208      1211      1214      1216
      1208      1211      1214      1217      1209      1208      1211      1212
      1209      1208      1211      1213      1209      1208      1211      1214
      1210      1208      1211      1212      1210      1208      1211      1213
      1210      1208      1211      1214      1211      1214      1217      1218
      1211      1214      1217      1219      1211      1214      1217      1220
      1212      1211      1214      1215      1212      1211      1214      1216
      1212      1211      1214      1217      1213      1211      1214      1215
      1213      1211      1214      1216      1213      1211      1214      1217
      1214      1217      1220      1221      1214      1217      1220      1222
      1214      1217      1220      1223      1215      1214      1217      1218
      1215      1214      1217      1219      1215      1214      1217      1220
      1216      1214      1217      1218      1216      1214      1217      1219
      1216      1214      1217      1220      1218      1217      1220      1221
      1218      1217      1220      1222      1218      1217      1220      1223
      1219      1217      1220      1221      1219      1217      1220      1222
      1219      1217      1220      1223      1224      1228      1231      1232
      1224      1228      1231      1233      1224      1228      1231      1237
      1225      1224      1228      1229      1225      1224      1228      1230
      1225      1224      1228      1231      1226      1224      1228      1229
      1226      1224      1228      1230      1226      1224      1228      1231
      1227      1224      1228      1229      1227      1224      1228      1230
      1227      1224      1228      1231      1228      1231      1237      1234
      1229      1228      1231      1232      1229      1228      1231      1233
      1229      1228      1231      1237      1230      1228      1231      1232
      1230      1228      1231      1233      1230      1228      1231      1237
      1231      1237      1234      1235      1231      1237      1234      1236
      1231      1237      1234      1238      1232      1231      1237      1234
      1233      1231      1237      1234      1234      1238      1239      1240
      1234      1238      1239      1241      1234      1238      1239      1242
      1235      1234      1238      1239      1236      1234      1238      1239
      1237      1234      1238      1239      1238      1239      1242      1243
      1238      1239      1242      1244      1238      1239      1242      1250
      1239      1242      1244      1245      1239      1242      1250      1251
      1239      1242      1250      1252      1239      1242      1250      1253
      1240      1239      1242      1243      1240      1239      1242      1244
      1240      1239      1242      1250      1241      1239      1242      1243
      1241      1239      1242      1244      1241      1239      1242      1250
      1242      1244      1245      1246      1242      1244      1245      1247
      1242      1250      1253      1254      1243      1242      1244      1245
      1243      1242      1250      1251      1243      1242      1250      1252
      1243      1242      1250      1253      1244      1242      1250      1251
      1244      1242      1250      1252      1244      1242      1250      1253
      1244      1245      1247      1248      1244      1245      1247      1249
      1244      1245      1247      1259      1245      1244      1242      1250
      1245      1247      1259      1260      1245      1247      1259      1261
      1245      1247      1259      1262      1246      1245      1247      1248
      1246      1245      1247      1249      1246      1245      1247      1259
      1247      1259      1262      1263      1247      1259      1262      1264
      1247      1259      1262      1265      1248      1247      1259      1260
      1248      1247      1259      1261      1248      1247      1259      1262
      1249      1247      1259      1260      1249      1247      1259      1261
      1249      1247      1259      1262      1250      1253      1254      1255
      1250      1253      1254      1256      1251      1250      1253      1254
      1252      1250      1253      1254      1253      1254      1256      1257
      1253      1254      1256      1258      1253      1254      1256      1306
      1254      1256      1306      1307      1254      1256      1306      1308
      1254      1256      1306      1309      1255      1254      1256      1257
      1255      1254      1256      1258      1255      1254      1256      1306
      1256      1306      1309      1310      1256      1306      1309      1311
      1256      1306      1309      1312      1257      1256      1306      1307
      1257      1256      1306      1308      1257      1256      1306      1309
      1258      1256      1306      1307      1258      1256      1306      1308
      1258      1256      1306      1309      1259      1262      1265      1266
      1259      1262      1265      1267      1259      1262      1265      1268
      1260      1259      1262      1263      1260      1259      1262      1264
      1260      1259      1262      1265      1261      1259      1262      1263
      1261      1259      1262      1264      1261      1259      1262      1265
      1262      1265      1268      1269      1262      1265      1268      1270
      1262      1265      1268      1271      1263      1262      1265      1266
      1263      1262      1265      1267      1263      1262      1265      1268
      1264      1262      1265      1266      1264      1262      1265      1267
      1264      1262      1265      1268      1265      1268      1271      1272
      1265      1268      1271      1273      1265      1268      1271      1274
      1266      1265      1268      1269      1266      1265      1268      1270
      1266      1265      1268      1271      1267      1265      1268      1269
      1267      1265      1268      1270      1267      1265      1268      1271
      1268      1271      1274      1275      1268      1271      1274      1276
      1268      1271      1274      1277      1269      1268      1271      1272
      1269      1268      1271      1273      1269      1268      1271      1274
      1270      1268      1271      1272      1270      1268      1271      1273
      1270      1268      1271      1274      1271      1274      1277      1278
      1271      1274      1277      1279      1272      1271      1274      1275
      1272      1271      1274      1276      1272      1271      1274      1277
      1273      1271      1274      1275      1273      1271      1274      1276
      1273      1271      1274      1277      1274      1277      1279      1280
      1274      1277      1279      1281      1275      1274      1277      1278
      1275      1274      1277      1279      1276      1274      1277      1278
      1276      1274      1277      1279      1277      1279      1281      1282
      1277      1279      1281      1283      1277      1279      1281      1284
      1278      1277      1279      1280      1278      1277      1279      1281
      1279      1281      1284      1285      1279      1281      1284      1286
      1279      1281      1284      1287      1280      1279      1281      1282
      1280      1279      1281      1283      1280      1279      1281      1284
      1281      1284      1287      1288      1281      1284      1287      1289
      1281      1284      1287      1290      1282      1281      1284      1285
      1282      1281      1284      1286      1282      1281      1284      1287
      1283      1281      1284      1285      1283      1281      1284      1286
      1283      1281      1284      1287      1284      1287      1290      1291
      1284      1287      1290      1292      1284      1287      1290      1293
      1285      1284      1287      1288      1285      1284      1287      1289
      1285      1284      1287      1290      1286      1284      1287      1288
      1286      1284      1287      1289      1286      1284      1287      1290
      1287      1290      1293      1294      1287      1290      1293      1295
      1287      1290      1293      1296      1288      1287      1290      1291
      1288      1287      1290      1292      1288      1287      1290      1293
      1289      1287      1290      1291      1289      1287      1290      1292
      1289      1287      1290      1293      1290      1293      1296      1297
      1290      1293      1296      1298      1290      1293      1296      1299
      1291      1290      1293      1294      1291      1290      1293      1295
      1291      1290      1293      1296      1292      1290      1293      1294
      1292      1290      1293      1295      1292      1290      1293      1296
      1293      1296      1299      1300      1293      1296      1299      1301
      1293      1296      1299      1302      1294      1293      1296      1297
      1294      1293      1296      1298      1294      1293      1296      1299
      1295      1293      1296      1297      1295      1293      1296      1298
      1295      1293      1296      1299      1296      1299      1302      1303
      1296      1299      1302      1304      1296      1299      1302      1305
      1297      1296      1299      1300      1297      1296      1299      1301
      1297      1296      1299      1302      1298      1296      1299      1300
      1298      1296      1299      1301      1298      1296      1299      1302
      1300      1299      1302      1303      1300      1299      1302      1304
      1300      1299      1302      1305      1301      1299      1302      1303
      1301      1299      1302      1304      1301      1299      1302      1305
      1306      1309      1312      1313      1306      1309      1312      1314
      1306      1309      1312      1315      1307      1306      1309      1310
      1307      1306      1309      1311      1307      1306      1309      1312
      1308      1306      1309      1310      1308      1306      1309      1311
      1308      1306      1309      1312      1309      1312      1315      1316
      1309      1312      1315      1317      1309      1312      1315      1318
      1310      1309      1312      1313      1310      1309      1312      1314
      1310      1309      1312      1315      1311      1309      1312      1313
      1311      1309      1312      1314      1311      1309      1312      1315
      1312      1315      1318      1319      1312      1315      1318      1320
      1312      1315      1318      1321      1313      1312      1315      1316
      1313      1312      1315      1317      1313      1312      1315      1318
      1314      1312      1315      1316      1314      1312      1315      1317
      1314      1312      1315      1318      1315      1318      1321      1322
      1315      1318      1321      1323      1315      1318      1321      1324
      1316      1315      1318      1319      1316      1315      1318      1320
      1316      1315      1318      1321      1317      1315      1318      1319
      1317      1315      1318      1320      1317      1315      1318      1321
      1318      1321      1324      1325      1318      1321      1324      1326
      1318      1321      1324      1327      1319      1318      1321      1322
      1319      1318      1321      1323      1319      1318      1321      1324
      1320      1318      1321      1322      1320      1318      1321      1323
      1320      1318      1321      1324      1321      1324      1327      1328
      1321      1324      1327      1329      1321      1324      1327      1330
      1322      1321      1324      1325      1322      1321      1324      1326
      1322      1321      1324      1327      1323      1321      1324      1325
      1323      1321      1324      1326      1323      1321      1324      1327
      1324      1327      1330      1331      1324      1327      1330      1332
      1324      1327      1330      1333      1325      1324      1327      1328
      1325      1324      1327      1329      1325      1324      1327      1330
      1326      1324      1327      1328      1326      1324      1327      1329
      1326      1324      1327      1330      1327      1330      1333      1334
      1327      1330      1333      1335      1327      1330      1333      1336
      1328      1327      1330      1331      1328      1327      1330      1332
      1328      1327      1330      1333      1329      1327      1330      1331
      1329      1327      1330      1332      1329      1327      1330      1333
      1330      1333      1336      1337      1330      1333      1336      1338
      1330      1333      1336      1339      1331      1330      1333      1334
      1331      1330      1333      1335      1331      1330      1333      1336
      1332      1330      1333      1334      1332      1330      1333      1335
      1332      1330      1333      1336      1333      1336      1339      1340
      1333      1336      1339      1341      1333      1336      1339      1342
      1334      1333      1336      1337      1334      1333      1336      1338
      1334      1333      1336      1339      1335      1333      1336      1337
      1335      1333      1336      1338      1335      1333      1336      1339
      1336      1339      1342      1343      1336      1339      1342      1344
      1336      1339      1342      1345      1337      1336      1339      1340
      1337      1336      1339      1341      1337      1336      1339      1342
      1338      1336      1339      1340      1338      1336      1339      1341
      1338      1336      1339      1342      1339      1342      1345      1346
      1339      1342      1345      1347      1339      1342      1345      1348
      1340      1339      1342      1343      1340      1339      1342      1344
      1340      1339      1342      1345      1341      1339      1342      1343
      1341      1339      1342      1344      1341      1339      1342      1345
      1342      1345      1348      1349      1342      1345      1348      1350
      1342      1345      1348      1351      1343      1342      1345      1346
      1343      1342      1345      1347      1343      1342      1345      1348
      1344      1342      1345      1346      1344      1342      1345      1347
      1344      1342      1345      1348      1345      1348      1351      1352
      1345      1348      1351      1353      1345      1348      1351      1354
      1346      1345      1348      1349      1346      1345      1348      1350
      1346      1345      1348      1351      1347      1345      1348      1349
      1347      1345      1348      1350      1347      1345      1348      1351
      1349      1348      1351      1352      1349      1348      1351      1353
      1349      1348      1351      1354      1350      1348      1351      1352
      1350      1348      1351      1353      1350      1348      1351      1354
      1355      1368      1371      1372      1355      1368      1371      1373
      1355      1368      1371      1378      1356      1355      1360      1361
      1356      1355      1360      1362      1356      1355      1360      1363
      1356      1355      1364      1365      1356      1355      1364      1366
      1356      1355      1364      1367      1356      1355      1368      1369
      1356      1355      1368      1370      1356      1355      1368      1371
      1357      1356      1355      1360      1357      1356      1355      1364
      1357      1356      1355      1368      1358      1356      1355      1360
      1358      1356      1355      1364      1358      1356      1355      1368
      1359      1356      1355      1360      1359      1356      1355      1364
      1359      1356      1355      1368      1360      1355      1364      1365
      1360      1355      1364      1366      1360      1355      1364      1367
      1360      1355      1368      1369      1360      1355      1368      1370
      1360      1355      1368      1371      1361      1360      1355      1364
      1361      1360      1355      1368      1362      1360      1355      1364
      1362      1360      1355      1368      1363      1360      1355      1364
      1363      1360      1355      1368      1364      1355      1368      1369
      1364      1355      1368      1370      1364      1355      1368      1371
      1365      1364      1355      1368      1366      1364      1355      1368
      1367      1364      1355      1368      1368      1371      1378      1374
      1369      1368      1371      1372      1369      1368      1371      1373
      1369      1368      1371      1378      1370      1368      1371      1372
      1370      1368      1371      1373      1370      1368      1371      1378
      1371      1378      1374      1375      1371      1378      1374      1376
      1371      1378      1374      1377      1372      1371      1378      1374
      1373      1371      1378      1374      1374      1377      1379      1380
      1374      1377      1379      1381      1374      1377      1379      1384
      1375      1374      1377      1379      1376      1374      1377      1379
      1377      1379      1384      1382      1377      1379      1384      1385
      1377      1379      1384      1386      1378      1374      1377      1379
      1379      1384      1382      1383      1379      1384      1382      1434
      1379      1384      1386      1387      1379      1384      1386      1388
      1379      1384      1386      1390      1380      1379      1384      1382
      1380      1379      1384      1385      1380      1379      1384      1386
      1381      1379      1384      1382      1381      1379      1384      1385
      1381      1379      1384      1386      1382      1384      1386      1387
      1382      1384      1386      1388      1382      1384      1386      1390
      1382      1434      1436      1437      1382      1434      1436      1438
      1382      1434      1436      1439      1383      1382      1384      1385
      1383      1382      1384      1386      1383      1382      1434      1435
      1383      1382      1434      1436      1384      1382      1434      1435
      1384      1382      1434      1436      1384      1386      1388      1389
      1384      1386      1390      1391      1384      1386      1390      1392
      1385      1384      1382      1434      1385      1384      1386      1387
      1385      1384      1386      1388      1385      1384      1386      1390
      1386      1384      1382      1434      1386      1390      1392      1393
      1386      1390      1392      1394      1387      1386      1388      1389
      1387      1386      1390      1391      1387      1386      1390      1392
      1388      1386      1390      1391      1388      1386      1390      1392
      1389      1388      1386      1390      1390      1392      1394      1395
      1390      1392      1394      1396      1390      1392      1394      1397
      1391      1390      1392      1393      1391      1390      1392      1394
      1392      1394      1397      1398      1392      1394      1397      1399
      1392      1394      1397      1400      1393      1392      1394      1395
      1393      1392      1394      1396      1393      1392      1394      1397
      1394      1397      1400      1401      1394      1397      1400      1402
      1394      1397      1400      1403      1395      1394      1397      1398
      1395      1394      1397      1399      1395      1394      1397      1400
      1396      1394      1397      1398      1396      1394      1397      1399
      1396      1394      1397      1400      1397      1400      1403      1404
      1397      1400      1403      1405      1397      1400      1403      1406
      1398      1397      1400      1401      1398      1397      1400      1402
      1398      1397      1400      1403      1399      1397      1400      1401
      1399      1397      1400      1402      1399      1397      1400      1403
      1400      1403      1406      1407      1400      1403      1406      1408
      1400      1403      1406      1409      1401      1400      1403      1404
      1401      1400      1403      1405      1401      1400      1403      1406
      1402      1400      1403      1404      1402      1400      1403      1405
      1402      1400      1403      1406      1403      1406      1409      1410
      1403      1406      1409      1411      1403      1406      1409      1412
      1404      1403      1406      1407      1404      1403      1406      1408
      1404      1403      1406      1409      1405      1403      1406      1407
      1405      1403      1406      1408      1405      1403      1406      1409
      1406      1409      1412      1413      1406      1409      1412      1414
      1406      1409      1412      1415      1407      1406      1409      1410
      1407      1406      1409      1411      1407      1406      1409      1412
      1408      1406      1409      1410      1408      1406      1409      1411
      1408      1406      1409      1412      1409      1412      1415      1416
      1409      1412      1415      1417      1409      1412      1415      1418
      1410      1409      1412      1413      1410      1409      1412      1414
      1410      1409      1412      1415      1411      1409      1412      1413
      1411      1409      1412      1414      1411      1409      1412      1415
      1412      1415      1418      1419      1412      1415      1418      1420
      1412      1415      1418      1421      1413      1412      1415      1416
      1413      1412      1415      1417      1413      1412      1415      1418
      1414      1412      1415      1416      1414      1412      1415      1417
      1414      1412      1415      1418      1415      1418      1421      1422
      1415      1418      1421      1423      1415      1418      1421      1424
      1416      1415      1418      1419      1416      1415      1418      1420
      1416      1415      1418      1421      1417      1415      1418      1419
      1417      1415      1418      1420      1417      1415      1418      1421
      1418      1421      1424      1425      1418      1421      1424      1426
      1418      1421      1424      1427      1419      1418      1421      1422
      1419      1418      1421      1423      1419      1418      1421      1424
      1420      1418      1421      1422      1420      1418      1421      1423
      1420      1418      1421      1424      1421      1424      1427      1428
      1421      1424      1427      1429      1421      1424      1427      1430
      1422      1421      1424      1425      1422      1421      1424      1426
      1422      1421      1424      1427      1423      1421      1424      1425
      1423      1421      1424      1426      1423      1421      1424      1427
      1424      1427      1430      1431      1424      1427      1430      1432
      1424      1427      1430      1433      1425      1424      1427      1428
      1425      1424      1427      1429      1425      1424      1427      1430
      1426      1424      1427      1428      1426      1424      1427      1429
      1426      1424      1427      1430      1428      1427      1430      1431
      1428      1427      1430      1432      1428      1427      1430      1433
      1429      1427      1430      1431      1429      1427      1430      1432
      1429      1427      1430      1433      1434      1436      1439      1440
      1434      1436      1439      1441      1434      1436      1439      1442
      1435      1434      1436      1437      1435      1434      1436      1438
      1435      1434      1436      1439      1436      1439      1442      1443
      1436      1439      1442      1444      1436      1439      1442      1445
      1437      1436      1439      1440      1437      1436      1439      1441
      1437      1436      1439      1442      1438      1436      1439      1440
      1438      1436      1439      1441      1438      1436      1439      1442
      1439      1442      1445      1446      1439      1442      1445      1447
      1439      1442      1445      1448      1440      1439      1442      1443
      1440      1439      1442      1444      1440      1439      1442      1445
      1441      1439      1442      1443      1441      1439      1442      1444
      1441      1439      1442      1445      1442      1445      1448      1449
      1442      1445      1448      1450      1442      1445      1448      1451
      1443      1442      1445      1446      1443      1442      1445      1447
      1443      1442      1445      1448      1444      1442      1445      1446
      1444      1442      1445      1447      1444      1442      1445      1448
      1445      1448      1451      1452      1445      1448      1451      1453
      1445      1448      1451      1454      1446      1445      1448      1449
      1446      1445      1448      1450      1446      1445      1448      1451
      1447      1445      1448      1449      1447      1445      1448      1450
      1447      1445      1448      1451      1448      1451      1454      1455
      1448      1451      1454      1456      1448      1451      1454      1457
      1449      1448      1451      1452      1449      1448      1451      1453
      1449      1448      1451      1454      1450      1448      1451      1452
      1450      1448      1451      1453      1450      1448      1451      1454
      1451      1454      1457      1458      1451      1454      1457      1459
      1452      1451      1454      1455      1452      1451      1454      1456
      1452      1451      1454      1457      1453      1451      1454      1455
      1453      1451      1454      1456      1453      1451      1454      1457
      1454      1457      1459      1460      1454      1457      1459      1461
      1455      1454      1457      1458      1455      1454      1457      1459
      1456      1454      1457      1458      1456      1454      1457      1459
      1457      1459      1461      1462      1457      1459      1461      1463
      1457      1459      1461      1464      1458      1457      1459      1460
      1458      1457      1459      1461      1459      1461      1464      1465
      1459      1461      1464      1466      1459      1461      1464      1467
      1460      1459      1461      1462      1460      1459      1461      1463
      1460      1459      1461      1464      1461      1464      1467      1468
      1461      1464      1467      1469      1461      1464      1467      1470
      1462      1461      1464      1465      1462      1461      1464      1466
      1462      1461      1464      1467      1463      1461      1464      1465
      1463      1461      1464      1466      1463      1461      1464      1467
      1464      1467      1470      1471      1464      1467      1470      1472
      1464      1467      1470      1473      1465      1464      1467      1468
      1465      1464      1467      1469      1465      1464      1467      1470
      1466      1464      1467      1468      1466      1464      1467      1469
      1466      1464      1467      1470      1467      1470      1473      1474
      1467      1470      1473      1475      1467      1470      1473      1476
      1468      1467      1470      1471      1468      1467      1470      1472
      1468      1467      1470      1473      1469      1467      1470      1471
      1469      1467      1470      1472      1469      1467      1470      1473
      1470      1473      1476      1477      1470      1473      1476      1478
      1470      1473      1476      1479      1471      1470      1473      1474
      1471      1470      1473      1475      1471      1470      1473      1476
      1472      1470      1473      1474      1472      1470      1473      1475
      1472      1470      1473      1476      1473      1476      1479      1480
      1473      1476      1479      1481      1473      1476      1479      1482
      1474      1473      1476      1477      1474      1473      1476      1478
      1474      1473      1476      1479      1475      1473      1476      1477
      1475      1473      1476      1478      1475      1473      1476      1479
      1476      1479      1482      1483      1476      1479      1482      1484
      1476      1479      1482      1485      1477      1476      1479      1480
      1477      1476      1479      1481      1477      1476      1479      1482
      1478      1476      1479      1480      1478      1476      1479      1481
      1478      1476      1479      1482      1480      1479      1482      1483
      1480      1479      1482      1484      1480      1479      1482      1485
      1481      1479      1482      1483      1481      1479      1482      1484
      1481      1479      1482      1485      1486      1499      1502      1503
      1486      1499      1502      1504      1486      1499      1502      1509
      1487      1486      1491      1492      1487      1486      1491      1493
      1487      1486      1491      1494      1487      1486      1495      1496
      1487      1486      1495      1497      1487      1486      1495      1498
      1487      1486      1499      1500      1487      1486      1499      1501
      1487      1486      1499      1502      1488      1487      1486      1491
      1488      1487      1486      1495      1488      1487      1486      1499
      1489      1487      1486      1491      1489      1487      1486      1495
      1489      1487      1486      1499      1490      1487      1486      1491
      1490      1487      1486      1495      1490      1487      1486      1499
      1491      1486      1495      1496      1491      1486      1495      1497
      1491      1486      1495      1498      1491      1486      1499      1500
      1491      1486      1499      1501      1491      1486      1499      1502
      1492      1491      1486      1495      1492      1491      1486      1499
      1493      1491      1486      1495      1493      1491      1486      1499
      1494      1491      1486      1495      1494      1491      1486      1499
      1495      1486      1499      1500      1495      1486      1499      1501
      1495      1486      1499      1502      1496      1495      1486      1499
      1497      1495      1486      1499      1498      1495      1486      1499
      1499      1502      1509      1505      1500      1499      1502      1503
      1500      1499      1502      1504      1500      1499      1502      1509
      1501      1499      1502      1503      1501      1499      1502      1504
      1501      1499      1502      1509      1502      1509      1505      1506
      1502      1509      1505      1507      1502      1509      1505      1508
      1503      1502      1509      1505      1504      1502      1509      1505
      1505      1508      1510      1511      1505      1508      1510      1512
      1505      1508      1510      1515      1506      1505      1508      1510
      1507      1505      1508      1510      1508      1510      1515      1513
      1508      1510      1515      1516      1508      1510      1515      1517
      1509      1505      1508      1510      1510      1515      1513      1514
      1510      1515      1513      1565      1510      1515      1517      1518
      1510      1515      1517      1519      1510      1515      1517      1521
      1511      1510      1515      1513      1511      1510      1515      1516
      1511      1510      1515      1517      1512      1510      1515      1513
      1512      1510      1515      1516      1512      1510      1515      1517
      1513      1515      1517      1518      1513      1515      1517      1519
      1513      1515      1517      1521      1513      1565      1567      1568
      1513      1565      1567      1569      1513      1565      1567      1570
      1514      1513      1515      1516      1514      1513      1515      1517
      1514      1513      1565      1566      1514      1513      1565      1567
      1515      1513      1565      1566      1515      1513      1565      1567
      1515      1517      1519      1520      1515      1517      1521      1522
      1515      1517      1521      1523      1516      1515      1513      1565
      1516      1515      1517      1518      1516      1515      1517      1519
      1516      1515      1517      1521      1517      1515      1513      1565
      1517      1521      1523      1524      1517      1521      1523      1525
      1518      1517      1519      1520      1518      1517      1521      1522
      1518      1517      1521      1523      1519      1517      1521      1522
      1519      1517      1521      1523      1520      1519      1517      1521
      1521      1523      1525      1526      1521      1523      1525      1527
      1521      1523      1525      1528      1522      1521      1523      1524
      1522      1521      1523      1525      1523      1525      1528      1529
      1523      1525      1528      1530      1523      1525      1528      1531
      1524      1523      1525      1526      1524      1523      1525      1527
      1524      1523      1525      1528      1525      1528      1531      1532
      1525      1528      1531      1533      1525      1528      1531      1534
      1526      1525      1528      1529      1526      1525      1528      1530
      1526      1525      1528      1531      1527      1525      1528      1529
      1527      1525      1528      1530      1527      1525      1528      1531
      1528      1531      1534      1535      1528      1531      1534      1536
      1528      1531      1534      1537      1529      1528      1531      1532
      1529      1528      1531      1533      1529      1528      1531      1534
      1530      1528      1531      1532      1530      1528      1531      1533
      1530      1528      1531      1534      1531      1534      1537      1538
      1531      1534      1537      1539      1531      1534      1537      1540
      1532      1531      1534      1535      1532      1531      1534      1536
      1532      1531      1534      1537      1533      1531      1534      1535
      1533      1531      1534      1536      1533      1531      1534      1537
      1534      1537      1540      1541      1534      1537      1540      1542
      1534      1537      1540      1543      1535      1534      1537      1538
      1535      1534      1537      1539      1535      1534      1537      1540
      1536      1534      1537      1538      1536      1534      1537      1539
      1536      1534      1537      1540      1537      1540      1543      1544
      1537      1540      1543      1545      1537      1540      1543      1546
      1538      1537      1540      1541      1538      1537      1540      1542
      1538      1537      1540      1543      1539      1537      1540      1541
      1539      1537      1540      1542      1539      1537      1540      1543
      1540      1543      1546      1547      1540      1543      1546      1548
      1540      1543      1546      1549      1541      1540      1543      1544
      1541      1540      1543      1545      1541      1540      1543      1546
      1542      1540      1543      1544      1542      1540      1543      1545
      1542      1540      1543      1546      1543      1546      1549      1550
      1543      1546      1549      1551      1543      1546      1549      1552
      1544      1543      1546      1547      1544      1543      1546      1548
      1544      1543      1546      1549      1545      1543      1546      1547
      1545      1543      1546      1548      1545      1543      1546      1549
      1546      1549      1552      1553      1546      1549      1552      1554
      1546      1549      1552      1555      1547      1546      1549      1550
      1547      1546      1549      1551      1547      1546      1549      1552
      1548      1546      1549      1550      1548      1546      1549      1551
      1548      1546      1549      1552      1549      1552      1555      1556
      1549      1552      1555      1557      1549      1552      1555      1558
      1550      1549      1552      1553      1550      1549      1552      1554
      1550      1549      1552      1555      1551      1549      1552      1553
      1551      1549      1552      1554      1551      1549      1552      1555
      1552      1555      1558      1559      1552      1555      1558      1560
      1552      1555      1558      1561      1553      1552      1555      1556
      1553      1552      1555      1557      1553      1552      1555      1558
      1554      1552      1555      1556      1554      1552      1555      1557
      1554      1552      1555      1558      1555      1558      1561      1562
      1555      1558      1561      1563      1555      1558      1561      1564
      1556      1555      1558      1559      1556      1555      1558      1560
      1556      1555      1558      1561      1557      1555      1558      1559
      1557      1555      1558      1560      1557      1555      1558      1561
      1559      1558      1561      1562      1559      1558      1561      1563
      1559      1558      1561      1564      1560      1558      1561      1562
      1560      1558      1561      1563      1560      1558      1561      1564
      1565      1567      1570      1571      1565      1567      1570      1572
      1565      1567      1570      1573      1566      1565      1567      1568
      1566      1565      1567      1569      1566      1565      1567      1570
      1567      1570      1573      1574      1567      1570      1573      1575
      1567      1570      1573      1576      1568      1567      1570      1571
      1568      1567      1570      1572      1568      1567      1570      1573
      1569      1567      1570      1571      1569      1567      1570      1572
      1569      1567      1570      1573      1570      1573      1576      1577
      1570      1573      1576      1578      1570      1573      1576      1579
      1571      1570      1573      1574      1571      1570      1573      1575
      1571      1570      1573      1576      1572      1570      1573      1574
      1572      1570      1573      1575      1572      1570      1573      1576
      1573      1576      1579      1580      1573      1576      1579      1581
      1573      1576      1579      1582      1574      1573      1576      1577
      1574      1573      1576      1578      1574      1573      1576      1579
      1575      1573      1576      1577      1575      1573      1576      1578
      1575      1573      1576      1579      1576      1579      1582      1583
      1576      1579      1582      1584      1576      1579      1582      1585
      1577      1576      1579      1580      1577      1576      1579      1581
      1577      1576      1579      1582      1578      1576      1579      1580
      1578      1576      1579      1581      1578      1576      1579      1582
      1579      1582      1585      1586      1579      1582      1585      1587
      1579      1582      1585      1588      1580      1579      1582      1583
      1580      1579      1582      1584      1580      1579      1582      1585
      1581      1579      1582      1583      1581      1579      1582      1584
      1581      1579      1582      1585      1582      1585      1588      1589
      1582      1585      1588      1590      1583      1582      1585      1586
      1583      1582      1585      1587      1583      1582      1585      1588
      1584      1582      1585      1586      1584      1582      1585      1587
      1584      1582      1585      1588      1585      1588      1590      1591
      1585      1588      1590      1592      1586      1585      1588      1589
      1586      1585      1588      1590      1587      1585      1588      1589
      1587      1585      1588      1590      1588      1590      1592      1593
      1588      1590      1592      1594      1588      1590      1592      1595
      1589      1588      1590      1591      1589      1588      1590      1592
      1590      1592      1595      1596      1590      1592      1595      1597
      1590      1592      1595      1598      1591      1590      1592      1593
      1591      1590      1592      1594      1591      1590      1592      1595
      1592      1595      1598      1599      1592      1595      1598      1600
      1592      1595      1598      1601      1593      1592      1595      1596
      1593      1592      1595      1597      1593      1592      1595      1598
      1594      1592      1595      1596      1594      1592      1595      1597
      1594      1592      1595      1598      1595      1598      1601      1602
      1595      1598      1601      1603      1595      1598      1601      1604
      1596      1595      1598      1599      1596      1595      1598      1600
      1596      1595      1598      1601      1597      1595      1598      1599
      1597      1595      1598      1600      1597      1595      1598      1601
      1598      1601      1604      1605      1598      1601      1604      1606
      1598      1601      1604      1607      1599      1598      1601      1602
      1599      1598      1601      1603      1599      1598      1601      1604
      1600      1598      1601      1602      1600      1598      1601      1603
      1600      1598      1601      1604      1601      1604      1607      1608
      1601      1604      1607      1609      1601      1604      1607      1610
      1602      1601      1604      1605      1602      1601      1604      1606
      1602      1601      1604      1607      1603      1601      1604      1605
      1603      1601      1604      1606      1603      1601      1604      1607
      1604      1607      1610      1611      1604      1607      1610      1612
      1604      1607      1610      1613      1605      1604      1607      1608
      1605      1604      1607      1609      1605      1604      1607      1610
      1606      1604      1607      1608      1606      1604      1607      1609
      1606      1604      1607      1610      1607      1610      1613      1614
      1607      1610      1613      1615      1607      1610      1613      1616
      1608      1607      1610      1611      1608      1607      1610      1612
      1608      1607      1610      1613      1609      1607      1610      1611
      1609      1607      1610      1612      1609      1607      1610      1613
      1611      1610      1613      1614      1611      1610      1613      1615
      1611      1610      1613      1616      1612      1610      1613      1614
      1612      1610      1613      1615      1612      1610      1613      1616
      1617      1621      1624      1625      1617      1621      1624      1626
      1617      1621      1624      1630      1618      1617      1621      1622
      1618      1617      1621      1623      1618      1617      1621      1624
      1619      1617      1621      1622      1619      1617      1621      1623
      1619      1617      1621      1624      1620      1617      1621      1622
      1620      1617      1621      1623      1620      1617      1621      1624
      1621      1624      1630      1627      1622      1621      1624      1625
      1622      1621      1624      1626      1622      1621      1624      1630
      1623      1621      1624      1625      1623      1621      1624      1626
      1623      1621      1624      1630      1624      1630      1627      1628
      1624      1630      1627      1629      1624      1630      1627      1631
      1625      1624      1630      1627      1626      1624      1630      1627
      1627      1631      1632      1633      1627      1631      1632      1634
      1627      1631      1632      1635      1628      1627      1631      1632
      1629      1627      1631      1632      1630      1627      1631      1632
      1631      1632      1635      1636      1631      1632      1635      1637
      1631      1632      1635      1643      1632      1635      1637      1638
      1632      1635      1643      1644      1632      1635      1643      1645
      1632      1635      1643      1646      1633      1632      1635      1636
      1633      1632      1635      1637      1633      1632      1635      1643
      1634      1632      1635      1636      1634      1632      1635      1637
      1634      1632      1635      1643      1635      1637      1638      1639
      1635      1637      1638      1640      1635      1643      1646      1647
      1636      1635      1637      1638      1636      1635      1643      1644
      1636      1635      1643      1645      1636      1635      1643      1646
      1637      1635      1643      1644      1637      1635      1643      1645
      1637      1635      1643      1646      1637      1638      1640      1641
      1637      1638      1640      1642      1637      1638      1640      1652
      1638      1637      1635      1643      1638      1640      1652      1653
      1638      1640      1652      1654      1638      1640      1652      1655
      1639      1638      1640      1641      1639      1638      1640      1642
      1639      1638      1640      1652      1640      1652      1655      1656
      1640      1652      1655      1657      1640      1652      1655      1658
      1641      1640      1652      1653      1641      1640      1652      1654
      1641      1640      1652      1655      1642      1640      1652      1653
      1642      1640      1652      1654      1642      1640      1652      1655
      1643      1646      1647      1648      1643      1646      1647      1649
      1644      1643      1646      1647      1645      1643      1646      1647
      1646      1647      1649      1650      1646      1647      1649      1651
      1646      1647      1649      1699      1647      1649      1699      1700
      1647      1649      1699      1701      1647      1649      1699      1702
      1648      1647      1649      1650      1648      1647      1649      1651
      1648      1647      1649      1699      1649      1699      1702      1703
      1649      1699      1702      1704      1649      1699      1702      1705
      1650      1649      1699      1700      1650      1649      1699      1701
      1650      1649      1699      1702      1651      1649      1699      1700
      1651      1649      1699      1701      1651      1649      1699      1702
      1652      1655      1658      1659      1652      1655      1658      1660
      1652      1655      1658      1661      1653      1652      1655      1656
      1653      1652      1655      1657      1653      1652      1655      1658
      1654      1652      1655      1656      1654      1652      1655      1657
      1654      1652      1655      1658      1655      1658      1661      1662
      1655      1658      1661      1663      1655      1658      1661      1664
      1656      1655      1658      1659      1656      1655      1658      1660
      1656      1655      1658      1661      1657      1655      1658      1659
      1657      1655      1658      1660      1657      1655      1658      1661
      1658      1661      1664      1665      1658      1661      1664      1666
      1658      1661      1664      1667      1659      1658      1661      1662
      1659      1658      1661      1663      1659      1658      1661      1664
      1660      1658      1661      1662      1660      1658      1661      1663
      1660      1658      1661      1664      1661      1664      1667      1668
      1661      1664      1667      1669      1661      1664      1667      1670
      1662      1661      1664      1665      1662      1661      1664      1666
      1662      1661      1664      1667      1663      1661      1664      1665
      1663      1661      1664      1666      1663      1661      1664      1667
      1664      1667      1670      1671      1664      1667      1670      1672
      1665      1664      1667      1668      1665      1664      1667      1669
      1665      1664      1667      1670      1666      1664      1667      1668
      1666      1664      1667      1669      1666      1664      1667      1670
      1667      1670      1672      1673      1667      1670      1672      1674
      1668      1667      1670      1671      1668      1667      1670      1672
      1669      1667      1670      1671      1669      1667      1670      1672
      1670      1672      1674      1675      1670      1672      1674      1676
      1670      1672      1674      1677      1671      1670      1672      1673
      1671      1670      1672      1674      1672      1674      1677      1678
      1672      1674      1677      1679      1672      1674      1677      1680
      1673      1672      1674      1675      1673      1672      1674      1676
      1673      1672      1674      1677      1674      1677      1680      1681
      1674      1677      1680      1682      1674      1677      1680      1683
      1675      1674      1677      1678      1675      1674      1677      1679
      1675      1674      1677      1680      1676      1674      1677      1678
      1676      1674      1677      1679      1676      1674      1677      1680
      1677      1680      1683      1684      1677      1680      1683      1685
      1677      1680      1683      1686      1678      1677      1680      1681
      1678      1677      1680      1682      1678      1677      1680      1683
      1679      1677      1680      1681      1679      1677      1680      1682
      1679      1677      1680      1683      1680      1683      1686      1687
      1680      1683      1686      1688      1680      1683      1686      1689
      1681      1680      1683      1684      1681      1680      1683      1685
      1681      1680      1683      1686      1682      1680      1683      1684
      1682      1680      1683      1685      1682      1680      1683      1686
      1683      1686      1689      1690      1683      1686      1689      1691
      1683      1686      1689      1692      1684      1683      1686      1687
      1684      1683      1686      1688      1684      1683      1686      1689
      1685      1683      1686      1687      1685      1683      1686      1688
      1685      1683      1686      1689      1686      1689      1692      1693
      1686      1689      1692      1694      1686      1689      1692      1695
      1687      1686      1689      1690      1687      1686      1689      1691
      1687      1686      1689      1692      1688      1686      1689      1690
      1688      1686      1689      1691      1688      1686      1689      1692
      1689      1692      1695      1696      1689      1692      1695      1697
      1689      1692      1695      1698      1690      1689      1692      1693
      1690      1689      1692      1694      1690      1689      1692      1695
      1691      1689      1692      1693      1691      1689      1692      1694
      1691      1689      1692      1695      1693      1692      1695      1696
      1693      1692      1695      1697      1693      1692      1695      1698
      1694      1692      1695      1696      1694      1692      1695      1697
      1694      1692      1695      1698      1699      1702      1705      1706
      1699      1702      1705      1707      1699      1702      1705      1708
      1700      1699      1702      1703      1700      1699      1702      1704
      1700      1699      1702      1705      1701      1699      1702      1703
      1701      1699      1702      1704      1701      1699      1702      1705
      1702      1705      1708      1709      1702      1705      1708      1710
      1702      1705      1708      1711      1703      1702      1705      1706
      1703      1702      1705      1707      1703      1702      1705      1708
      1704      1702      1705      1706      1704      1702      1705      1707
      1704      1702      1705      1708      1705      1708      1711      1712
      1705      1708      1711      1713      1705      1708      1711      1714
      1706      1705      1708      1709      1706      1705      1708      1710
      1706      1705      1708      1711      1707      1705      1708      1709
      1707      1705      1708      1710      1707      1705      1708      1711
      1708      1711      1714      1715      1708      1711      1714      1716
      1708      1711      1714      1717      1709      1708      1711      1712
      1709      1708      1711      1713      1709      1708      1711      1714
      1710      1708      1711      1712      1710      1708      1711      1713
      1710      1708      1711      1714      1711      1714      1717      1718
      1711      1714      1717      1719      1711      1714      1717      1720
      1712      1711      1714      1715      1712      1711      1714      1716
      1712      1711      1714      1717      1713      1711      1714      1715
      1713      1711      1714      1716      1713      1711      1714      1717
      1714      1717      1720      1721      1714      1717      1720      1722
      1714      1717      1720      1723      1715      1714      1717      1718
      1715      1714      1717      1719      1715      1714      1717      1720
      1716      1714      1717      1718      1716      1714      1717      1719
      1716      1714      1717      1720      1717      1720      1723      1724
      1717      1720      1723      1725      1717      1720      1723      1726
      1718      1717      1720      1721      1718      1717      1720      1722
      1718      1717      1720      1723      1719      1717      1720      1721
      1719      1717      1720      1722      1719      1717      1720      1723
      1720      1723      1726      1727      1720      1723      1726      1728
      1720      1723      1726      1729      1721      1720      1723      1724
      1721      1720      1723      1725      1721      1720      1723      1726
      1722      1720      1723      1724      1722      1720      1723      1725
      1722      1720      1723      1726      1723      1726      1729      1730
      1723      1726      1729      1731      1723      1726      1729      1732
      1724      1723      1726      1727      1724      1723      1726      1728
      1724      1723      1726      1729      1725      1723      1726      1727
      1725      1723      1726      1728      1725      1723      1726      1729
      1726      1729      1732      1733      1726      1729      1732      1734
      1726      1729      1732      1735      1727      1726      1729      1730
      1727      1726      1729      1731      1727      1726      1729      1732
      1728      1726      1729      1730      1728      1726      1729      1731
      1728      1726      1729      1732      1729      1732      1735      1736
      1729      1732      1735      1737      1729      1732      1735      1738
      1730      1729      1732      1733      1730      1729      1732      1734
      1730      1729      1732      1735      1731      1729      1732      1733
      1731      1729      1732      1734      1731      1729      1732      1735
      1732      1735      1738      1739      1732      1735      1738      1740
      1732      1735      1738      1741      1733      1732      1735      1736
      1733      1732      1735      1737      1733      1732      1735      1738
      1734      1732      1735      1736      1734      1732      1735      1737
      1734      1732      1735      1738      1735      1738      1741      1742
      1735      1738      1741      1743      1735      1738      1741      1744
      1736      1735      1738      1739      1736      1735      1738      1740
      1736      1735      1738      1741      1737      1735      1738      1739
      1737      1735      1738      1740      1737      1735      1738      1741
      1738      1741      1744      1745      1738      1741      1744      1746
      1738      1741      1744      1747      1739      1738      1741      1742
      1739      1738      1741      1743      1739      1738      1741      1744
      1740      1738      1741      1742      1740      1738      1741      1743
      1740      1738      1741      1744      1742      1741      1744      1745
      1742      1741      1744      1746      1742      1741      1744      1747
      1743      1741      1744      1745      1743      1741      1744      1746
      1743      1741      1744      1747      1748      1752      1754      1755
      1748      1752      1754      1756      1748      1752      1757      1758
      1748      1752      1757      1759      1748      1752      1757      1763
      1749      1748      1752      1753      1749      1748      1752      1754
      1749      1748      1752      1757      1750      1748      1752      1753
      1750      1748      1752      1754      1750      1748      1752      1757
      1751      1748      1752      1753      1751      1748      1752      1754
      1751      1748      1752      1757      1752      1757      1763      1760
      1753      1752      1754      1755      1753      1752      1754      1756
      1753      1752      1757      1758      1753      1752      1757      1759
      1753      1752      1757      1763      1754      1752      1757      1758
      1754      1752      1757      1759      1754      1752      1757      1763
      1755      1754      1752      1757      1756      1754      1752      1757
      1757      1763      1760      1761      1757      1763      1760      1762
      1757      1763      1760      1764      1758      1757      1763      1760
      1759      1757      1763      1760      1760      1764      1765      1766
      1760      1764      1765      1767      1760      1764      1765      1768
      1761      1760      1764      1765      1762      1760      1764      1765
      1763      1760      1764      1765      1764      1765      1768      1769
      1764      1765      1768      1770      1764      1765      1768      1776
      1765      1768      1770      1771      1765      1768      1776      1777
      1765      1768      1776      1778      1765      1768      1776      1779
      1766      1765      1768      1769      1766      1765      1768      1770
      1766      1765      1768      1776      1767      1765      1768      1769
      1767      1765      1768      1770      1767      1765      1768      1776
      1768      1770      1771      1772      1768      1770      1771      1773
      1768      1776      1779      1780      1769      1768      1770      1771
      1769      1768      1776      1777      1769      1768      1776      1778
      1769      1768      1776      1779      1770      1768      1776      1777
      1770      1768      1776      1778      1770      1768      1776      1779
      1770      1771      1773      1774      1770      1771      1773      1775
      1770      1771      1773      1785      1771      1770      1768      1776
      1771      1773      1785      1786      1771      1773      1785      1787
      1771      1773      1785      1788      1772      1771      1773      1774
      1772      1771      1773      1775      1772      1771      1773      1785
      1773      1785      1788      1789      1773      1785      1788      1790
      1773      1785      1788      1791      1774      1773      1785      1786
      1774      1773      1785      1787      1774      1773      1785      1788
      1775      1773      1785      1786      1775      1773      1785      1787
      1775      1773      1785      1788      1776      1779      1780      1781
      1776      1779      1780      1782      1777      1776      1779      1780
      1778      1776      1779      1780      1779      1780      1782      1783
      1779      1780      1782      1784      1779      1780      1782      1832
      1780      1782      1832      1833      1780      1782      1832      1834
      1780      1782      1832      1835      1781      1780      1782      1783
      1781      1780      1782      1784      1781      1780      1782      1832
      1782      1832      1835      1836      1782      1832      1835      1837
      1782      1832      1835      1838      1783      1782      1832      1833
      1783      1782      1832      1834      1783      1782      1832      1835
      1784      1782      1832      1833      1784      1782      1832      1834
      1784      1782      1832      1835      1785      1788      1791      1792
      1785      1788      1791      1793      1786      1785      1788      1789
      1786      1785      1788      1790      1786      1785      1788      1791
      1787      1785      1788      1789      1787      1785      1788      1790
      1787      1785      1788      1791      1788      1791      1793      1794
      1788      1791      1793      1795      1789      1788      1791      1792
      1789      1788      1791      1793      1790      1788      1791      1792
      1790      1788      1791      1793      1791      1793      1795      1796
      1791      1793      1795      1797      1791      1793      1795      1798
      1792      1791      1793      1794      1792      1791      1793      1795
      1793      1795      1798      1799      1793      1795      1798      1800
      1794      1793      1795      1796      1794      1793      1795      1797
      1794      1793      1795      1798      1795      1798      1800      1801
      1795      1798      1800      1802      1796      1795      1798      1799
      1796      1795      1798      1800      1797      1795      1798      1799
      1797      1795      1798      1800      1798      1800      1802      1803
      1798      1800      1802      1804      1798      1800      1802      1805
      1799      1798      1800      1801      1799      1798      1800      1802
      1800      1802      1805      1806      1800      1802      1805      1807
      1801      1800      1802      1803      1801      1800      1802      1804
      1801      1800      1802      1805      1802      1805      1807      1808
      1802      1805      1807      1809      1803      1802      1805      1806
      1803      1802      1805      1807      1804      1802      1805      1806
      1804      1802      1805      1807      1805      1807      1809      1810
      1805      1807      1809      1811      1805      1807      1809      1812
      1806      1805      1807      1808      1806      1805      1807      1809
      1807      1809      1812      1813      1807      1809      1812      1814
      1808      1807      1809      1810      1808      1807      1809      1811
      1808      1807      1809      1812      1809      1812      1814      1815
      1809      1812      1814      1816      1810      1809      1812      1813
      1810      1809      1812      1814      1811      1809      1812      1813
      1811      1809      1812      1814      1812      1814      1816      1817
      1812      1814      1816      1818      1812      1814      1816      1819
      1813      1812      1814      1815      1813      1812      1814      1816
      1814      1816      1819      1820      1814      1816      1819      1821
      1814      1816      1819      1822      1815      1814      1816      1817
      1815      1814      1816      1818      1815      1814      1816      1819
      1816      1819      1822      1823      1816      1819      1822      1824
      1816      1819      1822      1825      1817      1816      1819      1820
      1817      1816      1819      1821      1817      1816      1819      1822
      1818      1816      1819      1820      1818      1816      1819      1821
      1818      1816      1819      1822      1819      1822      1825      1826
      1819      1822      1825      1827      1819      1822      1825      1828
      1820      1819      1822      1823      1820      1819      1822      1824
      1820      1819      1822      1825      1821      1819      1822      1823
      1821      1819      1822      1824      1821      1819      1822      1825
      1822      1825      1828      1829      1822      1825      1828      1830
      1822      1825      1828      1831      1823      1822      1825      1826
      1823      1822      1825      1827      1823      1822      1825      1828
      1824      1822      1825      1826      1824      1822      1825      1827
      1824      1822      1825      1828      1826      1825      1828      1829
      1826      1825      1828      1830      1826      1825      1828      1831
      1827      1825      1828      1829      1827      1825      1828      1830
      1827      1825      1828      1831      1832      1835      1838      1839
      1832      1835      1838      1840      1832      1835      1838      1841
      1833      1832      1835      1836      1833      1832      1835      1837
      1833      1832      1835      1838      1834      1832      1835      1836
      1834      1832      1835      1837      1834      1832      1835      1838
      1835      1838      1841      1842      1835      1838      1841      1843
      1835      1838      1841      1844      1836      1835      1838      1839
      1836      1835      1838      1840      1836      1835      1838      1841
      1837      1835      1838      1839      1837      1835      1838      1840
      1837      1835      1838      1841      1838      1841      1844      1845
      1838      1841      1844      1846      1838      1841      1844      1847
      1839      1838      1841      1842      1839      1838      1841      1843
      1839      1838      1841      1844      1840      1838      1841      1842
      1840      1838      1841      1843      1840      1838      1841      1844
      1841      1844      1847      1848      1841      1844      1847      1849
      1841      1844      1847      1850      1842      1841      1844      1845
      1842      1841      1844      1846      1842      1841      1844      1847
      1843      1841      1844      1845      1843      1841      1844      1846
      1843      1841      1844      1847      1844      1847      1850      1851
      1844      1847      1850      1852      1844      1847      1850      1853
      1845      1844      1847      1848      1845      1844      1847      1849
      1845      1844      1847      1850      1846      1844      1847      1848
      1846      1844      1847      1849      1846      1844      1847      1850
      1847      1850      1853      1854      1847      1850      1853      1855
      1847      1850      1853      1856      1848      1847      1850      1851
      1848      1847      1850      1852      1848      1847      1850      1853
      1849      1847      1850      1851      1849      1847      1850      1852
      1849      1847      1850      1853      1850      1853      1856      1857
      1850      1853      1856      1858      1850      1853      1856      1859
      1851      1850      1853      1854      1851      1850      1853      1855
      1851      1850      1853      1856      1852      1850      1853      1854
      1852      1850      1853      1855      1852      1850      1853      1856
      1853      1856      1859      1860      1853      1856      1859      1861
      1853      1856      1859      1862      1854      1853      1856      1857
      1854      1853      1856      1858      1854      1853      1856      1859
      1855      1853      1856      1857      1855      1853      1856      1858
      1855      1853      1856      1859      1856      1859      1862      1863
      1856      1859      1862      1864      1856      1859      1862      1865
      1857      1856      1859      1860      1857      1856      1859      1861
      1857      1856      1859      1862      1858      1856      1859      1860
      1858      1856      1859      1861      1858      1856      1859      1862
      1859      1862      1865      1866      1859      1862      1865      1867
      1859      1862      1865      1868      1860      1859      1862      1863
      1860      1859      1862      1864      1860      1859      1862      1865
      1861      1859      1862      1863      1861      1859      1862      1864
      1861      1859      1862      1865      1862      1865      1868      1869
      1862      1865      1868      1870      1862      1865      1868      1871
      1863      1862      1865      1866      1863      1862      1865      1867
      1863      1862      1865      1868      1864      1862      1865      1866
      1864      1862      1865      1867      1864      1862      1865      1868
      1865      1868      1871      1872      1865      1868      1871      1873
      1865      1868      1871      1874      1866      1865      1868      1869
      1866      1865      1868      1870      1866      1865      1868      1871
      1867      1865      1868      1869      1867      1865      1868      1870
      1867      1865      1868      1871      1868      1871      1874      1875
      1868      1871      1874      1876      1868      1871      1874      1877
      1869      1868      1871      1872      1869      1868      1871      1873
      1869      1868      1871      1874      1870      1868      1871      1872
      1870      1868      1871      1873      1870      1868      1871      1874
      1871      1874      1877      1878      1871      1874      1877      1879
      1871      1874      1877      1880      1872      1871      1874      1875
      1872      1871      1874      1876      1872      1871      1874      1877
      1873      1871      1874      1875      1873      1871      1874      1876
      1873      1871      1874      1877      1875      1874      1877      1878
      1875      1874      1877      1879      1875      1874      1877      1880
      1876      1874      1877      1878      1876      1874      1877      1879
      1876      1874      1877      1880      1881      1882      1897      1898
      1881      1882      1897      1899      1881      1882      1897      1903
      1882      1881      1885      1886      1882      1881      1885      1887
      1882      1881      1885      1888      1882      1881      1889      1890
      1882      1881      1889      1891      1882      1881      1889      1892
      1882      1881      1893      1894      1882      1881      1893      1895
      1882      1881      1893      1896      1882      1897      1903      1900
      1883      1882      1881      1885      1883      1882      1881      1889
      1883      1882      1881      1893      1883      1882      1897      1898
      1883      1882      1897      1899      1883      1882      1897      1903
      1884      1882      1881      1885      1884      1882      1881      1889
      1884      1882      1881      1893      1884      1882      1897      1898
      1884      1882      1897      1899      1884      1882      1897      1903
      1885      1881      1882      1897      1885      1881      1889      1890
      1885      1881      1889      1891      1885      1881      1889      1892
      1885      1881      1893      1894      1885      1881      1893      1895
      1885      1881      1893      1896      1886      1885      1881      1889
      1886      1885      1881      1893      1887      1885      1881      1889
      1887      1885      1881      1893      1888      1885      1881      1889
      1888      1885      1881      1893      1889      1881      1882      1897
      1889      1881      1893      1894      1889      1881      1893      1895
      1889      1881      1893      1896      1890      1889      1881      1893
      1891      1889      1881      1893      1892      1889      1881      1893
      1893      1881      1882      1897      1897      1903      1900      1901
      1897      1903      1900      1902      1897      1903      1900      1904
      1898      1897      1903      1900      1899      1897      1903      1900
      1900      1904      1905      1906      1900      1904      1905      1907
      1900      1904      1905      1908      1901      1900      1904      1905
      1902      1900      1904      1905      1903      1900      1904      1905
      1904      1905      1908      1909      1904      1905      1908      1910
      1904      1905      1908      1916      1905      1908      1910      1911
      1905      1908      1916      1917      1905      1908      1916      1918
      1905      1908      1916      1919      1906      1905      1908      1909
      1906      1905      1908      1910      1906      1905      1908      1916
      1907      1905      1908      1909      1907      1905      1908      1910
      1907      1905      1908      1916      1908      1910      1911      1912
      1908      1910      1911      1913      1908      1916      1919      1920
      1909      1908      1910      1911      1909      1908      1916      1917
      1909      1908      1916      1918      1909      1908      1916      1919
      1910      1908      1916      1917      1910      1908      1916      1918
      1910      1908      1916      1919      1910      1911      1913      1914
      1910      1911      1913      1915      1910      1911      1913      1925
      1911      1910      1908      1916      1911      1913      1925      1926
      1911      1913      1925      1927      1911      1913      1925      1928
      1912      1911      1913      1914      1912      1911      1913      1915
      1912      1911      1913      1925      1913      1925      1928      1929
      1913      1925      1928      1930      1913      1925      1928      1931
      1914      1913      1925      1926      1914      1913      1925      1927
      1914      1913      1925      1928      1915      1913      1925      1926
      1915      1913      1925      1927      1915      1913      1925      1928
      1916      1919      1920      1921      1916      1919      1920      1922
      1917      1916      1919      1920      1918      1916      1919      1920
      1919      1920      1922      1923      1919      1920      1922      1924
      1919      1920      1922      1972      1920      1922      1972      1973
      1920      1922      1972      1974      1920      1922      1972      1975
      1921      1920      1922      1923      1921      1920      1922      1924
      1921      1920      1922      1972      1922      1972      1975      1976
      1922      1972      1975      1977      1922      1972      1975      1978
      1923      1922      1972      1973      1923      1922      1972      1974
      1923      1922      1972      1975      1924      1922      1972      1973
      1924      1922      1972      1974      1924      1922      1972      1975
      1925      1928      1931      1932      1925      1928      1931      1933
      1926      1925      1928      1929      1926      1925      1928      1930
      1926      1925      1928      1931      1927      1925      1928      1929
      1927      1925      1928      1930      1927      1925      1928      1931
      1928      1931      1933      1934      1928      1931      1933      1935
      1929      1928      1931      1932      1929      1928      1931      1933
      1930      1928      1931      1932      1930      1928      1931      1933
      1931      1933      1935      1936      1931      1933      1935      1937
      1931      1933      1935      1938      1932      1931      1933      1934
      1932      1931      1933      1935      1933      1935      1938      1939
      1933      1935      1938      1940      1934      1933      1935      1936
      1934      1933      1935      1937      1934      1933      1935      1938
      1935      1938      1940      1941      1935      1938      1940      1942
      1936      1935      1938      1939      1936      1935      1938      1940
      1937      1935      1938      1939      1937      1935      1938      1940
      1938      1940      1942      1943      1938      1940      1942      1944
      1938      1940      1942      1945      1939      1938      1940      1941
      1939      1938      1940      1942      1940      1942      1945      1946
      1940      1942      1945      1947      1941      1940      1942      1943
      1941      1940      1942      1944      1941      1940      1942      1945
      1942      1945      1947      1948      1942      1945      1947      1949
      1943      1942      1945      1946      1943      1942      1945      1947
      1944      1942      1945      1946      1944      1942      1945      1947
      1945      1947      1949      1950      1945      1947      1949      1951
      1945      1947      1949      1952      1946      1945      1947      1948
      1946      1945      1947      1949      1947      1949      1952      1953
      1947      1949      1952      1954      1948      1947      1949      1950
      1948      1947      1949      1951      1948      1947      1949      1952
      1949      1952      1954      1955      1949      1952      1954      1956
      1950      1949      1952      1953      1950      1949      1952      1954
      1951      1949      1952      1953      1951      1949      1952      1954
      1952      1954      1956      1957      1952      1954      1956      1958
      1952      1954      1956      1959      1953      1952      1954      1955
      1953      1952      1954      1956      1954      1956      1959      1960
      1954      1956      1959      1961      1954      1956      1959      1962
      1955      1954      1956      1957      1955      1954      1956      1958
      1955      1954      1956      1959      1956      1959      1962      1963
      1956      1959      1962      1964      1956      1959      1962      1965
      1957      1956      1959      1960      1957      1956      1959      1961
      1957      1956      1959      1962      1958      1956      1959      1960
      1958      1956      1959      1961      1958      1956      1959      1962
      1959      1962      1965      1966      1959      1962      1965      1967
      1959      1962      1965      1968      1960      1959      1962      1963
      1960      1959      1962      1964      1960      1959      1962      1965
      1961      1959      1962      1963      1961      1959      1962      1964
      1961      1959      1962      1965      1962      1965      1968      1969
      1962      1965      1968      1970      1962      1965      1968      1971
      1963      1962      1965      1966      1963      1962      1965      1967
      1963      1962      1965      1968      1964      1962      1965      1966
      1964      1962      1965      1967      1964      1962      1965      1968
      1966      1965      1968      1969      1966      1965      1968      1970
      1966      1965      1968      1971      1967      1965      1968      1969
      1967      1965      1968      1970      1967      1965      1968      1971
      1972      1975      1978      1979      1972      1975      1978      1980
      1972      1975      1978      1981      1973      1972      1975      1976
      1973      1972      1975      1977      1973      1972      1975      1978
      1974      1972      1975      1976      1974      1972      1975      1977
      1974      1972      1975      1978      1975      1978      1981      1982
      1975      1978      1981      1983      1975      1978      1981      1984
      1976      1975      1978      1979      1976      1975      1978      1980
      1976      1975      1978      1981      1977      1975      1978      1979
      1977      1975      1978      1980      1977      1975      1978      1981
      1978      1981      1984      1985      1978      1981      1984      1986
      1978      1981      1984      1987      1979      1978      1981      1982
      1979      1978      1981      1983      1979      1978      1981      1984
      1980      1978      1981      1982      1980      1978      1981      1983
      1980      1978      1981      1984      1981      1984      1987      1988
      1981      1984      1987      1989      1981      1984      1987      1990
      1982      1981      1984      1985      1982      1981      1984      1986
      1982      1981      1984      1987      1983      1981      1984      1985
      1983      1981      1984      1986      1983      1981      1984      1987
      1984      1987      1990      1991      1984      1987      1990      1992
      1984      1987      1990      1993      1985      1984      1987      1988
      1985      1984      1987      1989      1985      1984      1987      1990
      1986      1984      1987      1988      1986      1984      1987      1989
      1986      1984      1987      1990      1987      1990      1993      1994
      1987      1990      1993      1995      1987      1990      1993      1996
      1988      1987      1990      1991      1988      1987      1990      1992
      1988      1987      1990      1993      1989      1987      1990      1991
      1989      1987      1990      1992      1989      1987      1990      1993
      1990      1993      1996      1997      1990      1993      1996      1998
      1990      1993      1996      1999      1991      1990      1993      1994
      1991      1990      1993      1995      1991      1990      1993      1996
      1992      1990      1993      1994      1992      1990      1993      1995
      1992      1990      1993      1996      1993      1996      1999      2000
      1993      1996      1999      2001      1993      1996      1999      2002
      1994      1993      1996      1997      1994      1993      1996      1998
      1994      1993      1996      1999      1995      1993      1996      1997
      1995      1993      1996      1998      1995      1993      1996      1999
      1996      1999      2002      2003      1996      1999      2002      2004
      1996      1999      2002      2005      1997      1996      1999      2000
      1997      1996      1999      2001      1997      1996      1999      2002
      1998      1996      1999      2000      1998      1996      1999      2001
      1998      1996      1999      2002      1999      2002      2005      2006
      1999      2002      2005      2007      1999      2002      2005      2008
      2000      1999      2002      2003      2000      1999      2002      2004
      2000      1999      2002      2005      2001      1999      2002      2003
      2001      1999      2002      2004      2001      1999      2002      2005
      2002      2005      2008      2009      2002      2005      2008      2010
      2002      2005      2008      2011      2003      2002      2005      2006
      2003      2002      2005      2007      2003      2002      2005      2008
      2004      2002      2005      2006      2004      2002      2005      2007
      2004      2002      2005      2008      2005      2008      2011      2012
      2005      2008      2011      2013      2005      2008      2011      2014
      2006      2005      2008      2009      2006      2005      2008      2010
      2006      2005      2008      2011      2007      2005      2008      2009
      2007      2005      2008      2010      2007      2005      2008      2011
      2008      2011      2014      2015      2008      2011      2014      2016
      2008      2011      2014      2017      2009      2008      2011      2012
      2009      2008      2011      2013      2009      2008      2011      2014
      2010      2008      2011      2012      2010      2008      2011      2013
      2010      2008      2011      2014      2011      2014      2017      2018
      2011      2014      2017      2019      2011      2014      2017      2020
      2012      2011      2014      2015      2012      2011      2014      2016
      2012      2011      2014      2017      2013      2011      2014      2015
      2013      2011      2014      2016      2013      2011      2014      2017
      2015      2014      2017      2018      2015      2014      2017      2019
      2015      2014      2017      2020      2016      2014      2017      2018
      2016      2014      2017      2019      2016      2014      2017      2020
      2021      2025      2028      2029      2021      2025      2028      2059
      2021      2067      2064      2059      2021      2067      2064      2065
      2021      2067      2064      2066      2022      2021      2023      2024
      2022      2021      2025      2026      2022      2021      2025      2027
      2022      2021      2025      2028      2022      2021      2067      2064
      2022      2021      2067      2068      2022      2021      2067      2069
      2023      2021      2025      2026      2023      2021      2025      2027
      2023      2021      2025      2028      2023      2021      2067      2064
      2023      2021      2067      2068      2023      2021      2067      2069
      2024      2023      2021      2025      2024      2023      2021      2067
      2025      2021      2067      2064      2025      2021      2067      2068
      2025      2021      2067      2069      2025      2028      2029      2030
      2025      2028      2029      2031      2025      2028      2059      2057
      2025      2028      2059      2060      2025      2028      2059      2064
      2026      2025      2021      2067      2026      2025      2028      2029
      2026      2025      2028      2059      2027      2025      2021      2067
      2027      2025      2028      2029      2027      2025      2028      2059
      2028      2025      2021      2067      2028      2029      2031      2032
      2028      2029      2031      2033      2028      2029      2031      2034
      2028      2059      2057      2034      2028      2059      2057      2054
      2028      2059      2057      2058      2028      2059      2060      2061
      2028      2059      2060      2062      2028      2059      2060      2063
      2028      2059      2064      2065      2028      2059      2064      2066
      2028      2059      2064      2067      2029      2028      2059      2057
      2029      2028      2059      2060      2029      2028      2059      2064
      2029      2031      2034      2035      2029      2031      2034      2036
      2029      2031      2034      2057      2030      2029      2028      2059
      2030      2029      2031      2032      2030      2029      2031      2033
      2030      2029      2031      2034      2031      2029      2028      2059
      2031      2034      2036      2037      2031      2034      2036      2038
      2031      2034      2036      2046      2031      2034      2057      2054
      2031      2034      2057      2058      2031      2034      2057      2059
      2032      2031      2034      2035      2032      2031      2034      2036
      2032      2031      2034      2057      2033      2031      2034      2035
      2033      2031      2034      2036      2033      2031      2034      2057
      2034      2036      2038      2039      2034      2036      2038      2040
      2034      2036      2038      2041      2034      2036      2046      2044
      2034      2036      2046      2047      2034      2036      2046      2051
      2034      2057      2054      2051      2034      2057      2054      2055
      2034      2057      2054      2056      2034      2057      2059      2060
      2034      2057      2059      2064      2035      2034      2036      2037
      2035      2034      2036      2038      2035      2034      2036      2046
      2035      2034      2057      2054      2035      2034      2057      2058
      2035      2034      2057      2059      2036      2034      2057      2054
      2036      2034      2057      2058      2036      2034      2057      2059
      2036      2038      2041      2042      2036      2038      2041      2043
      2036      2038      2041      2044      2036      2046      2044      2041
      2036      2046      2044      2045      2036      2046      2044      2070
      2036      2046      2047      2048      2036      2046      2047      2049
      2036      2046      2047      2050      2036      2046      2051      2052
      2036      2046      2051      2053      2036      2046      2051      2054
      2037      2036      2034      2057      2037      2036      2038      2039
      2037      2036      2038      2040      2037      2036      2038      2041
      2037      2036      2046      2044      2037      2036      2046      2047
      2037      2036      2046      2051      2038      2036      2034      2057
      2038      2036      2046      2044      2038      2036      2046      2047
      2038      2036      2046      2051      2038      2041      2044      2045
      2038      2041      2044      2046      2038      2041      2044      2070
      2039      2038      2036      2046      2039      2038      2041      2042
      2039      2038      2041      2043      2039      2038      2041      2044
      2040      2038      2036      2046      2040      2038      2041      2042
      2040      2038      2041      2043      2040      2038      2041      2044
      2041      2038      2036      2046      2041      2044      2046      2047
      2041      2044      2046      2051      2041      2044      2070      2071
      2041      2044      2070      2072      2041      2044      2070      2076
      2042      2041      2044      2045      2042      2041      2044      2046
      2042      2041      2044      2070      2043      2041      2044      2045
      2043      2041      2044      2046      2043      2041      2044      2070
      2044      2046      2047      2048      2044      2046      2047      2049
      2044      2046      2047      2050      2044      2046      2051      2052
      2044      2046      2051      2053      2044      2046      2051      2054
      2044      2070      2072      2073      2044      2070      2072      2074
      2044      2070      2072      2075      2044      2070      2076      2077
      2044      2070      2076      2078      2044      2070      2076      2079
      2045      2044      2046      2047      2045      2044      2046      2051
      2045      2044      2070      2071      2045      2044      2070      2072
      2045      2044      2070      2076      2046      2036      2034      2057
      2046      2044      2070      2071      2046      2044      2070      2072
      2046      2044      2070      2076      2046      2051      2054      2055
      2046      2051      2054      2056      2046      2051      2054      2057
      2047      2046      2044      2070      2047      2046      2051      2052
      2047      2046      2051      2053      2047      2046      2051      2054
      2048      2047      2046      2051      2049      2047      2046      2051
      2050      2047      2046      2051      2051      2046      2044      2070
      2051      2054      2057      2058      2051      2054      2057      2059
      2052      2051      2054      2055      2052      2051      2054      2056
      2052      2051      2054      2057      2053      2051      2054      2055
      2053      2051      2054      2056      2053      2051      2054      2057
      2054      2057      2059      2060      2054      2057      2059      2064
      2055      2054      2057      2058      2055      2054      2057      2059
      2056      2054      2057      2058      2056      2054      2057      2059
      2057      2059      2060      2061      2057      2059      2060      2062
      2057      2059      2060      2063      2057      2059      2064      2065
      2057      2059      2064      2066      2057      2059      2064      2067
      2058      2057      2059      2060      2058      2057      2059      2064
      2059      2064      2067      2068      2059      2064      2067      2069
      2060      2059      2064      2065      2060      2059      2064      2066
      2060      2059      2064      2067      2061      2060      2059      2064
      2062      2060      2059      2064      2063      2060      2059      2064
      2065      2064      2067      2068      2065      2064      2067      2069
      2066      2064      2067      2068      2066      2064      2067      2069
      2070      2076      2079      2080      2070      2076      2079      2081
      2070      2076      2079      2082      2071      2070      2072      2073
      2071      2070      2072      2074      2071      2070      2072      2075
      2071      2070      2076      2077      2071      2070      2076      2078
      2071      2070      2076      2079      2072      2070      2076      2077
      2072      2070      2076      2078      2072      2070      2076      2079
      2073      2072      2070      2076      2074      2072      2070      2076
      2075      2072      2070      2076      2076      2079      2082      2083
      2076      2079      2082      2084      2076      2079      2082      2085
      2077      2076      2079      2080      2077      2076      2079      2081
      2077      2076      2079      2082      2078      2076      2079      2080
      2078      2076      2079      2081      2078      2076      2079      2082
      2079      2082      2085      2086      2079      2082      2085      2087
      2079      2082      2085      2091      2080      2079      2082      2083
      2080      2079      2082      2084      2080      2079      2082      2085
      2081      2079      2082      2083      2081      2079      2082      2084
      2081      2079      2082      2085      2082      2085      2087      2088
      2082      2085      2087      2089      2082      2085      2087      2090
      2082      2085      2091      2092      2082      2085      2091      2093
      2082      2085      2091      2094      2083      2082      2085      2086
      2083      2082      2085      2087      2083      2082      2085      2091
      2084      2082      2085      2086      2084      2082      2085      2087
      2084      2082      2085      2091      2086      2085      2087      2088
      2086      2085      2087      2089      2086      2085      2087      2090
      2086      2085      2091      2092      2086      2085      2091      2093
      2086      2085      2091      2094      2087      2085      2091      2092
      2087      2085      2091      2093      2087      2085      2091      2094
      2088      2087      2085      2091      2089      2087      2085      2091
      2090      2087      2085      2091      2095      2108      2111      2112
      2095      2108      2111      2113      2095      2108      2111      2118
      2096      2095      2100      2101      2096      2095      2100      2102
      2096      2095      2100      2103      2096      2095      2104      2105
      2096      2095      2104      2106      2096      2095      2104      2107
      2096      2095      2108      2109      2096      2095      2108      2110
      2096      2095      2108      2111      2097      2096      2095      2100
      2097      2096      2095      2104      2097      2096      2095      2108
      2098      2096      2095      2100      2098      2096      2095      2104
      2098      2096      2095      2108      2099      2096      2095      2100
      2099      2096      2095      2104      2099      2096      2095      2108
      2100      2095      2104      2105      2100      2095      2104      2106
      2100      2095      2104      2107      2100      2095      2108      2109
      2100      2095      2108      2110      2100      2095      2108      2111
      2101      2100      2095      2104      2101      2100      2095      2108
      2102      2100      2095      2104      2102      2100      2095      2108
      2103      2100      2095      2104      2103      2100      2095      2108
      2104      2095      2108      2109      2104      2095      2108      2110
      2104      2095      2108      2111      2105      2104      2095      2108
      2106      2104      2095      2108      2107      2104      2095      2108
      2108      2111      2118      2114      2109      2108      2111      2112
      2109      2108      2111      2113      2109      2108      2111      2118
      2110      2108      2111      2112      2110      2108      2111      2113
      2110      2108      2111      2118      2111      2118      2114      2115
      2111      2118      2114      2116      2111      2118      2114      2117
      2112      2111      2118      2114      2113      2111      2118      2114
      2114      2117      2119      2120      2114      2117      2119      2121
      2114      2117      2119      2124      2115      2114      2117      2119
      2116      2114      2117      2119      2117      2119      2124      2122
      2117      2119      2124      2125      2117      2119      2124      2126
      2118      2114      2117      2119      2119      2124      2122      2123
      2119      2124      2122      2174      2119      2124      2126      2127
      2119      2124      2126      2128      2119      2124      2126      2130
      2120      2119      2124      2122      2120      2119      2124      2125
      2120      2119      2124      2126      2121      2119      2124      2122
      2121      2119      2124      2125      2121      2119      2124      2126
      2122      2124      2126      2127      2122      2124      2126      2128
      2122      2124      2126      2130      2122      2174      2176      2177
      2122      2174      2176      2178      2122      2174      2176      2179
      2123      2122      2124      2125      2123      2122      2124      2126
      2123      2122      2174      2175      2123      2122      2174      2176
      2124      2122      2174      2175      2124      2122      2174      2176
      2124      2126      2128      2129      2124      2126      2130      2131
      2124      2126      2130      2132      2125      2124      2122      2174
      2125      2124      2126      2127      2125      2124      2126      2128
      2125      2124      2126      2130      2126      2124      2122      2174
      2126      2130      2132      2133      2126      2130      2132      2134
      2127      2126      2128      2129      2127      2126      2130      2131
      2127      2126      2130      2132      2128      2126      2130      2131
      2128      2126      2130      2132      2129      2128      2126      2130
      2130      2132      2134      2135      2130      2132      2134      2136
      2130      2132      2134      2137      2131      2130      2132      2133
      2131      2130      2132      2134      2132      2134      2137      2138
      2132      2134      2137      2139      2132      2134      2137      2140
      2133      2132      2134      2135      2133      2132      2134      2136
      2133      2132      2134      2137      2134      2137      2140      2141
      2134      2137      2140      2142      2134      2137      2140      2143
      2135      2134      2137      2138      2135      2134      2137      2139
      2135      2134      2137      2140      2136      2134      2137      2138
      2136      2134      2137      2139      2136      2134      2137      2140
      2137      2140      2143      2144      2137      2140      2143      2145
      2137      2140      2143      2146      2138      2137      2140      2141
      2138      2137      2140      2142      2138      2137      2140      2143
      2139      2137      2140      2141      2139      2137      2140      2142
      2139      2137      2140      2143      2140      2143      2146      2147
      2140      2143      2146      2148      2140      2143      2146      2149
      2141      2140      2143      2144      2141      2140      2143      2145
      2141      2140      2143      2146      2142      2140      2143      2144
      2142      2140      2143      2145      2142      2140      2143      2146
      2143      2146      2149      2150      2143      2146      2149      2151
      2143      2146      2149      2152      2144      2143      2146      2147
      2144      2143      2146      2148      2144      2143      2146      2149
      2145      2143      2146      2147      2145      2143      2146      2148
      2145      2143      2146      2149      2146      2149      2152      2153
      2146      2149      2152      2154      2146      2149      2152      2155
      2147      2146      2149      2150      2147      2146      2149      2151
      2147      2146      2149      2152      2148      2146      2149      2150
      2148      2146      2149      2151      2148      2146      2149      2152
      2149      2152      2155      2156      2149      2152      2155      2157
      2149      2152      2155      2158      2150      2149      2152      2153
      2150      2149      2152      2154      2150      2149      2152      2155
      2151      2149      2152      2153      2151      2149      2152      2154
      2151      2149      2152      2155      2152      2155      2158      2159
      2152      2155      2158      2160      2152      2155      2158      2161
      2153      2152      2155      2156      2153      2152      2155      2157
      2153      2152      2155      2158      2154      2152      2155      2156
      2154      2152      2155      2157      2154      2152      2155      2158
      2155      2158      2161      2162      2155      2158      2161      2163
      2155      2158      2161      2164      2156      2155      2158      2159
      2156      2155      2158      2160      2156      2155      2158      2161
      2157      2155      2158      2159      2157      2155      2158      2160
      2157      2155      2158      2161      2158      2161      2164      2165
      2158      2161      2164      2166      2158      2161      2164      2167
      2159      2158      2161      2162      2159      2158      2161      2163
      2159      2158      2161      2164      2160      2158      2161      2162
      2160      2158      2161      2163      2160      2158      2161      2164
      2161      2164      2167      2168      2161      2164      2167      2169
      2161      2164      2167      2170      2162      2161      2164      2165
      2162      2161      2164      2166      2162      2161      2164      2167
      2163      2161      2164      2165      2163      2161      2164      2166
      2163      2161      2164      2167      2164      2167      2170      2171
      2164      2167      2170      2172      2164      2167      2170      2173
      2165      2164      2167      2168      2165      2164      2167      2169
      2165      2164      2167      2170      2166      2164      2167      2168
      2166      2164      2167      2169      2166      2164      2167      2170
      2168      2167      2170      2171      2168      2167      2170      2172
      2168      2167      2170      2173      2169      2167      2170      2171
      2169      2167      2170      2172      2169      2167      2170      2173
      2174      2176      2179      2180      2174      2176      2179      2181
      2174      2176      2179      2182      2175      2174      2176      2177
      2175      2174      2176      2178      2175      2174      2176      2179
      2176      2179      2182      2183      2176      2179      2182      2184
      2176      2179      2182      2185      2177      2176      2179      2180
      2177      2176      2179      2181      2177      2176      2179      2182
      2178      2176      2179      2180      2178      2176      2179      2181
      2178      2176      2179      2182      2179      2182      2185      2186
      2179      2182      2185      2187      2179      2182      2185      2188
      2180      2179      2182      2183      2180      2179      2182      2184
      2180      2179      2182      2185      2181      2179      2182      2183
      2181      2179      2182      2184      2181      2179      2182      2185
      2182      2185      2188      2189      2182      2185      2188      2190
      2182      2185      2188      2191      2183      2182      2185      2186
      2183      2182      2185      2187      2183      2182      2185      2188
      2184      2182      2185      2186      2184      2182      2185      2187
      2184      2182      2185      2188      2185      2188      2191      2192
      2185      2188      2191      2193      2185      2188      2191      2194
      2186      2185      2188      2189      2186      2185      2188      2190
      2186      2185      2188      2191      2187      2185      2188      2189
      2187      2185      2188      2190      2187      2185      2188      2191
      2188      2191      2194      2195      2188      2191      2194      2196
      2188      2191      2194      2197      2189      2188      2191      2192
      2189      2188      2191      2193      2189      2188      2191      2194
      2190      2188      2191      2192      2190      2188      2191      2193
      2190      2188      2191      2194      2191      2194      2197      2198
      2191      2194      2197      2199      2192      2191      2194      2195
      2192      2191      2194      2196      2192      2191      2194      2197
      2193      2191      2194      2195      2193      2191      2194      2196
      2193      2191      2194      2197      2194      2197      2199      2200
      2194      2197      2199      2201      2195      2194      2197      2198
      2195      2194      2197      2199      2196      2194      2197      2198
      2196      2194      2197      2199      2197      2199      2201      2202
      2197      2199      2201      2203      2197      2199      2201      2204
      2198      2197      2199      2200      2198      2197      2199      2201
      2199      2201      2204      2205      2199      2201      2204      2206
      2199      2201      2204      2207      2200      2199      2201      2202
      2200      2199      2201      2203      2200      2199      2201      2204
      2201      2204      2207      2208      2201      2204      2207      2209
      2201      2204      2207      2210      2202      2201      2204      2205
      2202      2201      2204      2206      2202      2201      2204      2207
      2203      2201      2204      2205      2203      2201      2204      2206
      2203      2201      2204      2207      2204      2207      2210      2211
      2204      2207      2210      2212      2204      2207      2210      2213
      2205      2204      2207      2208      2205      2204      2207      2209
      2205      2204      2207      2210      2206      2204      2207      2208
      2206      2204      2207      2209      2206      2204      2207      2210
      2207      2210      2213      2214      2207      2210      2213      2215
      2207      2210      2213      2216      2208      2207      2210      2211
      2208      2207      2210      2212      2208      2207      2210      2213
      2209      2207      2210      2211      2209      2207      2210      2212
      2209      2207      2210      2213      2210      2213      2216      2217
      2210      2213      2216      2218      2210      2213      2216      2219
      2211      2210      2213      2214      2211      2210      2213      2215
      2211      2210      2213      2216      2212      2210      2213      2214
      2212      2210      2213      2215      2212      2210      2213      2216
      2213      2216      2219      2220      2213      2216      2219      2221
      2213      2216      2219      2222      2214      2213      2216      2217
      2214      2213      2216      2218      2214      2213      2216      2219
      2215      2213      2216      2217      2215      2213      2216      2218
      2215      2213      2216      2219      2216      2219      2222      2223
      2216      2219      2222      2224      2216      2219      2222      2225
      2217      2216      2219      2220      2217      2216      2219      2221
      2217      2216      2219      2222      2218      2216      2219      2220
      2218      2216      2219      2221      2218      2216      2219      2222
      2220      2219      2222      2223      2220      2219      2222      2224
      2220      2219      2222      2225      2221      2219      2222      2223
      2221      2219      2222      2224      2221      2219      2222      2225
      2226      2239      2242      2243      2226      2239      2242      2244
      2226      2239      2242      2248      2227      2226      2231      2232
      2227      2226      2231      2233      2227      2226      2231      2234
      2227      2226      2235      2236      2227      2226      2235      2237
      2227      2226      2235      2238      2227      2226      2239      2240
      2227      2226      2239      2241      2227      2226      2239      2242
      2228      2227      2226      2231      2228      2227      2226      2235
      2228      2227      2226      2239      2229      2227      2226      2231
      2229      2227      2226      2235      2229      2227      2226      2239
      2230      2227      2226      2231      2230      2227      2226      2235
      2230      2227      2226      2239      2231      2226      2235      2236
      2231      2226      2235      2237      2231      2226      2235      2238
      2231      2226      2239      2240      2231      2226      2239      2241
      2231      2226      2239      2242      2232      2231      2226      2235
      2232      2231      2226      2239      2233      2231      2226      2235
      2233      2231      2226      2239      2234      2231      2226      2235
      2234      2231      2226      2239      2235      2226      2239      2240
      2235      2226      2239      2241      2235      2226      2239      2242
      2236      2235      2226      2239      2237      2235      2226      2239
      2238      2235      2226      2239      2239      2242      2248      2245
      2240      2239      2242      2243      2240      2239      2242      2244
      2240      2239      2242      2248      2241      2239      2242      2243
      2241      2239      2242      2244      2241      2239      2242      2248
      2242      2248      2245      2246      2242      2248      2245      2247
      2242      2248      2245      2249      2243      2242      2248      2245
      2244      2242      2248      2245      2245      2249      2250      2251
      2245      2249      2250      2252      2245      2249      2250      2253
      2246      2245      2249      2250      2247      2245      2249      2250
      2248      2245      2249      2250      2249      2250      2253      2254
      2249      2250      2253      2255      2249      2250      2253      2261
      2250      2253      2255      2256      2250      2253      2261      2262
      2250      2253      2261      2263      2250      2253      2261      2264
      2251      2250      2253      2254      2251      2250      2253      2255
      2251      2250      2253      2261      2252      2250      2253      2254
      2252      2250      2253      2255      2252      2250      2253      2261
      2253      2255      2256      2257      2253      2255      2256      2258
      2253      2261      2264      2265      2254      2253      2255      2256
      2254      2253      2261      2262      2254      2253      2261      2263
      2254      2253      2261      2264      2255      2253      2261      2262
      2255      2253      2261      2263      2255      2253      2261      2264
      2255      2256      2258      2259      2255      2256      2258      2260
      2255      2256      2258      2270      2256      2255      2253      2261
      2256      2258      2270      2271      2256      2258      2270      2272
      2256      2258      2270      2273      2257      2256      2258      2259
      2257      2256      2258      2260      2257      2256      2258      2270
      2258      2270      2273      2274      2258      2270      2273      2275
      2258      2270      2273      2276      2259      2258      2270      2271
      2259      2258      2270      2272      2259      2258      2270      2273
      2260      2258      2270      2271      2260      2258      2270      2272
      2260      2258      2270      2273      2261      2264      2265      2266
      2261      2264      2265      2267      2262      2261      2264      2265
      2263      2261      2264      2265      2264      2265      2267      2268
      2264      2265      2267      2269      2264      2265      2267      2315
      2265      2267      2315      2316      2265      2267      2315      2317
      2265      2267      2315      2318      2266      2265      2267      2268
      2266      2265      2267      2269      2266      2265      2267      2315
      2267      2315      2318      2319      2267      2315      2318      2320
      2267      2315      2318      2321      2268      2267      2315      2316
      2268      2267      2315      2317      2268      2267      2315      2318
      2269      2267      2315      2316      2269      2267      2315      2317
      2269      2267      2315      2318      2270      2273      2276      2277
      2270      2273      2276      2278      2270      2273      2276      2279
      2271      2270      2273      2274      2271      2270      2273      2275
      2271      2270      2273      2276      2272      2270      2273      2274
      2272      2270      2273      2275      2272      2270      2273      2276
      2273      2276      2279      2280      2273      2276      2279      2281
      2273      2276      2279      2282      2274      2273      2276      2277
      2274      2273      2276      2278      2274      2273      2276      2279
      2275      2273      2276      2277      2275      2273      2276      2278
      2275      2273      2276      2279      2276      2279      2282      2283
      2276      2279      2282      2284      2276      2279      2282      2285
      2277      2276      2279      2280      2277      2276      2279      2281
      2277      2276      2279      2282      2278      2276      2279      2280
      2278      2276      2279      2281      2278      2276      2279      2282
      2279      2282      2285      2286      2279      2282      2285      2287
      2279      2282      2285      2288      2280      2279      2282      2283
      2280      2279      2282      2284      2280      2279      2282      2285
      2281      2279      2282      2283      2281      2279      2282      2284
      2281      2279      2282      2285      2282      2285      2288      2289
      2282      2285      2288      2290      2283      2282      2285      2286
      2283      2282      2285      2287      2283      2282      2285      2288
      2284      2282      2285      2286      2284      2282      2285      2287
      2284      2282      2285      2288      2285      2288      2290      2291
      2285      2288      2290      2292      2286      2285      2288      2289
      2286      2285      2288      2290      2287      2285      2288      2289
      2287      2285      2288      2290      2288      2290      2292      2293
      2288      2290      2292      2294      2288      2290      2292      2295
      2289      2288      2290      2291      2289      2288      2290      2292
      2290      2292      2295      2296      2290      2292      2295      2297
      2291      2290      2292      2293      2291      2290      2292      2294
      2291      2290      2292      2295      2292      2295      2297      2298
      2292      2295      2297      2299      2293      2292      2295      2296
      2293      2292      2295      2297      2294      2292      2295      2296
      2294      2292      2295      2297      2295      2297      2299      2300
      2295      2297      2299      2301      2295      2297      2299      2302
      2296      2295      2297      2298      2296      2295      2297      2299
      2297      2299      2302      2303      2297      2299      2302      2304
      2297      2299      2302      2305      2298      2297      2299      2300
      2298      2297      2299      2301      2298      2297      2299      2302
      2299      2302      2305      2306      2299      2302      2305      2307
      2299      2302      2305      2308      2300      2299      2302      2303
      2300      2299      2302      2304      2300      2299      2302      2305
      2301      2299      2302      2303      2301      2299      2302      2304
      2301      2299      2302      2305      2302      2305      2308      2309
      2302      2305      2308      2310      2302      2305      2308      2311
      2303      2302      2305      2306      2303      2302      2305      2307
      2303      2302      2305      2308      2304      2302      2305      2306
      2304      2302      2305      2307      2304      2302      2305      2308
      2305      2308      2311      2312      2305      2308      2311      2313
      2305      2308      2311      2314      2306      2305      2308      2309
      2306      2305      2308      2310      2306      2305      2308      2311
      2307      2305      2308      2309      2307      2305      2308      2310
      2307      2305      2308      2311      2309      2308      2311      2312
      2309      2308      2311      2313      2309      2308      2311      2314
      2310      2308      2311      2312      2310      2308      2311      2313
      2310      2308      2311      2314      2315      2318      2321      2322
      2315      2318      2321      2323      2315      2318      2321      2324
      2316      2315      2318      2319      2316      2315      2318      2320
      2316      2315      2318      2321      2317      2315      2318      2319
      2317      2315      2318      2320      2317      2315      2318      2321
      2318      2321      2324      2325      2318      2321      2324      2326
      2318      2321      2324      2327      2319      2318      2321      2322
      2319      2318      2321      2323      2319      2318      2321      2324
      2320      2318      2321      2322      2320      2318      2321      2323
      2320      2318      2321      2324      2321      2324      2327      2328
      2321      2324      2327      2329      2321      2324      2327      2330
      2322      2321      2324      2325      2322      2321      2324      2326
      2322      2321      2324      2327      2323      2321      2324      2325
      2323      2321      2324      2326      2323      2321      2324      2327
      2324      2327      2330      2331      2324      2327      2330      2332
      2324      2327      2330      2333      2325      2324      2327      2328
      2325      2324      2327      2329      2325      2324      2327      2330
      2326      2324      2327      2328      2326      2324      2327      2329
      2326      2324      2327      2330      2327      2330      2333      2334
      2327      2330      2333      2335      2327      2330      2333      2336
      2328      2327      2330      2331      2328      2327      2330      2332
      2328      2327      2330      2333      2329      2327      2330      2331
      2329      2327      2330      2332      2329      2327      2330      2333
      2330      2333      2336      2337      2330      2333      2336      2338
      2330      2333      2336      2339      2331      2330      2333      2334
      2331      2330      2333      2335      2331      2330      2333      2336
      2332      2330      2333      2334      2332      2330      2333      2335
      2332      2330      2333      2336      2333      2336      2339      2340
      2333      2336      2339      2341      2333      2336      2339      2342
      2334      2333      2336      2337      2334      2333      2336      2338
      2334      2333      2336      2339      2335      2333      2336      2337
      2335      2333      2336      2338      2335      2333      2336      2339
      2336      2339      2342      2343      2336      2339      2342      2344
      2336      2339      2342      2345      2337      2336      2339      2340
      2337      2336      2339      2341      2337      2336      2339      2342
      2338      2336      2339      2340      2338      2336      2339      2341
      2338      2336      2339      2342      2339      2342      2345      2346
      2339      2342      2345      2347      2339      2342      2345      2348
      2340      2339      2342      2343      2340      2339      2342      2344
      2340      2339      2342      2345      2341      2339      2342      2343
      2341      2339      2342      2344      2341      2339      2342      2345
      2342      2345      2348      2349      2342      2345      2348      2350
      2342      2345      2348      2351      2343      2342      2345      2346
      2343      2342      2345      2347      2343      2342      2345      2348
      2344      2342      2345      2346      2344      2342      2345      2347
      2344      2342      2345      2348      2345      2348      2351      2352
      2345      2348      2351      2353      2345      2348      2351      2354
      2346      2345      2348      2349      2346      2345      2348      2350
      2346      2345      2348      2351      2347      2345      2348      2349
      2347      2345      2348      2350      2347      2345      2348      2351
      2348      2351      2354      2355      2348      2351      2354      2356
      2348      2351      2354      2357      2349      2348      2351      2352
      2349      2348      2351      2353      2349      2348      2351      2354
      2350      2348      2351      2352      2350      2348      2351      2353
      2350      2348      2351      2354      2351      2354      2357      2358
      2351      2354      2357      2359      2351      2354      2357      2360
      2352      2351      2354      2355      2352      2351      2354      2356
      2352      2351      2354      2357      2353      2351      2354      2355
      2353      2351      2354      2356      2353      2351      2354      2357
      2354      2357      2360      2361      2354      2357      2360      2362
      2354      2357      2360      2363      2355      2354      2357      2358
      2355      2354      2357      2359      2355      2354      2357      2360
      2356      2354      2357      2358      2356      2354      2357      2359
      2356      2354      2357      2360      2358      2357      2360      2361
      2358      2357      2360      2362      2358      2357      2360      2363
      2359      2357      2360      2361      2359      2357      2360      2362
      2359      2357      2360      2363      2364      2368      2371      2372
      2364      2368      2371      2402      2364      2410      2407      2402
      2364      2410      2407      2408      2364      2410      2407      2409
      2365      2364      2366      2367      2365      2364      2368      2369
      2365      2364      2368      2370      2365      2364      2368      2371
      2365      2364      2410      2407      2365      2364      2410      2411
      2365      2364      2410      2412      2366      2364      2368      2369
      2366      2364      2368      2370      2366      2364      2368      2371
      2366      2364      2410      2407      2366      2364      2410      2411
      2366      2364      2410      2412      2367      2366      2364      2368
      2367      2366      2364      2410      2368      2364      2410      2407
      2368      2364      2410      2411      2368      2364      2410      2412
      2368      2371      2372      2373      2368      2371      2372      2374
      2368      2371      2402      2400      2368      2371      2402      2403
      2368      2371      2402      2407      2369      2368      2364      2410
      2369      2368      2371      2372      2369      2368      2371      2402
      2370      2368      2364      2410      2370      2368      2371      2372
      2370      2368      2371      2402      2371      2368      2364      2410
      2371      2372      2374      2375      2371      2372      2374      2376
      2371      2372      2374      2377      2371      2402      2400      2377
      2371      2402      2400      2397      2371      2402      2400      2401
      2371      2402      2403      2404      2371      2402      2403      2405
      2371      2402      2403      2406      2371      2402      2407      2408
      2371      2402      2407      2409      2371      2402      2407      2410
      2372      2371      2402      2400      2372      2371      2402      2403
      2372      2371      2402      2407      2372      2374      2377      2378
      2372      2374      2377      2379      2372      2374      2377      2400
      2373      2372      2371      2402      2373      2372      2374      2375
      2373      2372      2374      2376      2373      2372      2374      2377
      2374      2372      2371      2402      2374      2377      2379      2380
      2374      2377      2379      2381      2374      2377      2379      2389
      2374      2377      2400      2397      2374      2377      2400      2401
      2374      2377      2400      2402      2375      2374      2377      2378
      2375      2374      2377      2379      2375      2374      2377      2400
      2376      2374      2377      2378      2376      2374      2377      2379
      2376      2374      2377      2400      2377      2379      2381      2382
      2377      2379      2381      2383      2377      2379      2381      2384
      2377      2379      2389      2387      2377      2379      2389      2390
      2377      2379      2389      2394      2377      2400      2397      2394
      2377      2400      2397      2398      2377      2400      2397      2399
      2377      2400      2402      2403      2377      2400      2402      2407
      2378      2377      2379      2380      2378      2377      2379      2381
      2378      2377      2379      2389      2378      2377      2400      2397
      2378      2377      2400      2401      2378      2377      2400      2402
      2379      2377      2400      2397      2379      2377      2400      2401
      2379      2377      2400      2402      2379      2381      2384      2385
      2379      2381      2384      2386      2379      2381      2384      2387
      2379      2389      2387      2384      2379      2389      2387      2388
      2379      2389      2387      2413      2379      2389      2390      2391
      2379      2389      2390      2392      2379      2389      2390      2393
      2379      2389      2394      2395      2379      2389      2394      2396
      2379      2389      2394      2397      2380      2379      2377      2400
      2380      2379      2381      2382      2380      2379      2381      2383
      2380      2379      2381      2384      2380      2379      2389      2387
      2380      2379      2389      2390      2380      2379      2389      2394
      2381      2379      2377      2400      2381      2379      2389      2387
      2381      2379      2389      2390      2381      2379      2389      2394
      2381      2384      2387      2388      2381      2384      2387      2389
      2381      2384      2387      2413      2382      2381      2379      2389
      2382      2381      2384      2385      2382      2381      2384      2386
      2382      2381      2384      2387      2383      2381      2379      2389
      2383      2381      2384      2385      2383      2381      2384      2386
      2383      2381      2384      2387      2384      2381      2379      2389
      2384      2387      2389      2390      2384      2387      2389      2394
      2384      2387      2413      2414      2384      2387      2413      2415
      2384      2387      2413      2419      2385      2384      2387      2388
      2385      2384      2387      2389      2385      2384      2387      2413
      2386      2384      2387      2388      2386      2384      2387      2389
      2386      2384      2387      2413      2387      2389      2390      2391
      2387      2389      2390      2392      2387      2389      2390      2393
      2387      2389      2394      2395      2387      2389      2394      2396
      2387      2389      2394      2397      2387      2413      2415      2416
      2387      2413      2415      2417      2387      2413      2415      2418
      2387      2413      2419      2420      2387      2413      2419      2421
      2387      2413      2419      2422      2388      2387      2389      2390
      2388      2387      2389      2394      2388      2387      2413      2414
      2388      2387      2413      2415      2388      2387      2413      2419
      2389      2379      2377      2400      2389      2387      2413      2414
      2389      2387      2413      2415      2389      2387      2413      2419
      2389      2394      2397      2398      2389      2394      2397      2399
      2389      2394      2397      2400      2390      2389      2387      2413
      2390      2389      2394      2395      2390      2389      2394      2396
      2390      2389      2394      2397      2391      2390      2389      2394
      2392      2390      2389      2394      2393      2390      2389      2394
      2394      2389      2387      2413      2394      2397      2400      2401
      2394      2397      2400      2402      2395      2394      2397      2398
      2395      2394      2397      2399      2395      2394      2397      2400
      2396      2394      2397      2398      2396      2394      2397      2399
      2396      2394      2397      2400      2397      2400      2402      2403
      2397      2400      2402      2407      2398      2397      2400      2401
      2398      2397      2400      2402      2399      2397      2400      2401
      2399      2397      2400      2402      2400      2402      2403      2404
      2400      2402      2403      2405      2400      2402      2403      2406
      2400      2402      2407      2408      2400      2402      2407      2409
      2400      2402      2407      2410      2401      2400      2402      2403
      2401      2400      2402      2407      2402      2407      2410      2411
      2402      2407      2410      2412      2403      2402      2407      2408
      2403      2402      2407      2409      2403      2402      2407      2410
      2404      2403      2402      2407      2405      2403      2402      2407
      2406      2403      2402      2407      2408      2407      2410      2411
      2408      2407      2410      2412      2409      2407      2410      2411
      2409      2407      2410      2412      2413      2419      2422      2423
      2413      2419      2422      2424      2413      2419      2422      2425
      2414      2413      2415      2416      2414      2413      2415      2417
      2414      2413      2415      2418      2414      2413      2419      2420
      2414      2413      2419      2421      2414      2413      2419      2422
      2415      2413      2419      2420      2415      2413      2419      2421
      2415      2413      2419      2422      2416      2415      2413      2419
      2417      2415      2413      2419      2418      2415      2413      2419
      2419      2422      2425      2426      2419      2422      2425      2427
      2419      2422      2425      2428      2420      2419      2422      2423
      2420      2419      2422      2424      2420      2419      2422      2425
      2421      2419      2422      2423      2421      2419      2422      2424
      2421      2419      2422      2425      2422      2425      2428      2429
      2422      2425      2428      2430      2422      2425      2428      2434
      2423      2422      2425      2426      2423      2422      2425      2427
      2423      2422      2425      2428      2424      2422      2425      2426
      2424      2422      2425      2427      2424      2422      2425      2428
      2425      2428      2430      2431      2425      2428      2430      2432
      2425      2428      2430      2433      2425      2428      2434      2435
      2425      2428      2434      2436      2425      2428      2434      2437
      2426      2425      2428      2429      2426      2425      2428      2430
      2426      2425      2428      2434      2427      2425      2428      2429
      2427      2425      2428      2430      2427      2425      2428      2434
      2429      2428      2430      2431      2429      2428      2430      2432
      2429      2428      2430      2433      2429      2428      2434      2435
      2429      2428      2434      2436      2429      2428      2434      2437
      2430      2428      2434      2435      2430      2428      2434      2436
      2430      2428      2434      2437      2431      2430      2428      2434
      2432      2430      2428      2434      2433      2430      2428      2434
      2438      2442      2445      2446      2438      2442      2445      2476
      2438      2484      2481      2476      2438      2484      2481      2482
      2438      2484      2481      2483      2439      2438      2440      2441
      2439      2438      2442      2443      2439      2438      2442      2444
      2439      2438      2442      2445      2439      2438      2484      2481
      2439      2438      2484      2485      2439      2438      2484      2486
      2440      2438      2442      2443      2440      2438      2442      2444
      2440      2438      2442      2445      2440      2438      2484      2481
      2440      2438      2484      2485      2440      2438      2484      2486
      2441      2440      2438      2442      2441      2440      2438      2484
      2442      2438      2484      2481      2442      2438      2484      2485
      2442      2438      2484      2486      2442      2445      2446      2447
      2442      2445      2446      2448      2442      2445      2476      2474
      2442      2445      2476      2477      2442      2445      2476      2481
      2443      2442      2438      2484      2443      2442      2445      2446
      2443      2442      2445      2476      2444      2442      2438      2484
      2444      2442      2445      2446      2444      2442      2445      2476
      2445      2442      2438      2484      2445      2446      2448      2449
      2445      2446      2448      2450      2445      2446      2448      2451
      2445      2476      2474      2451      2445      2476      2474      2471
      2445      2476      2474      2475      2445      2476      2477      2478
      2445      2476      2477      2479      2445      2476      2477      2480
      2445      2476      2481      2482      2445      2476      2481      2483
      2445      2476      2481      2484      2446      2445      2476      2474
      2446      2445      2476      2477      2446      2445      2476      2481
      2446      2448      2451      2452      2446      2448      2451      2453
      2446      2448      2451      2474      2447      2446      2445      2476
      2447      2446      2448      2449      2447      2446      2448      2450
      2447      2446      2448      2451      2448      2446      2445      2476
      2448      2451      2453      2454      2448      2451      2453      2455
      2448      2451      2453      2463      2448      2451      2474      2471
      2448      2451      2474      2475      2448      2451      2474      2476
      2449      2448      2451      2452      2449      2448      2451      2453
      2449      2448      2451      2474      2450      2448      2451      2452
      2450      2448      2451      2453      2450      2448      2451      2474
      2451      2453      2455      2456      2451      2453      2455      2457
      2451      2453      2455      2458      2451      2453      2463      2461
      2451      2453      2463      2464      2451      2453      2463      2468
      2451      2474      2471      2468      2451      2474      2471      2472
      2451      2474      2471      2473      2451      2474      2476      2477
      2451      2474      2476      2481      2452      2451      2453      2454
      2452      2451      2453      2455      2452      2451      2453      2463
      2452      2451      2474      2471      2452      2451      2474      2475
      2452      2451      2474      2476      2453      2451      2474      2471
      2453      2451      2474      2475      2453      2451      2474      2476
      2453      2455      2458      2459      2453      2455      2458      2460
      2453      2455      2458      2461      2453      2463      2461      2458
      2453      2463      2461      2462      2453      2463      2461      2487
      2453      2463      2464      2465      2453      2463      2464      2466
      2453      2463      2464      2467      2453      2463      2468      2469
      2453      2463      2468      2470      2453      2463      2468      2471
      2454      2453      2451      2474      2454      2453      2455      2456
      2454      2453      2455      2457      2454      2453      2455      2458
      2454      2453      2463      2461      2454      2453      2463      2464
      2454      2453      2463      2468      2455      2453      2451      2474
      2455      2453      2463      2461      2455      2453      2463      2464
      2455      2453      2463      2468      2455      2458      2461      2462
      2455      2458      2461      2463      2455      2458      2461      2487
      2456      2455      2453      2463      2456      2455      2458      2459
      2456      2455      2458      2460      2456      2455      2458      2461
      2457      2455      2453      2463      2457      2455      2458      2459
      2457      2455      2458      2460      2457      2455      2458      2461
      2458      2455      2453      2463      2458      2461      2463      2464
      2458      2461      2463      2468      2458      2461      2487      2488
      2458      2461      2487      2489      2458      2461      2487      2493
      2459      2458      2461      2462      2459      2458      2461      2463
      2459      2458      2461      2487      2460      2458      2461      2462
      2460      2458      2461      2463      2460      2458      2461      2487
      2461      2463      2464      2465      2461      2463      2464      2466
      2461      2463      2464      2467      2461      2463      2468      2469
      2461      2463      2468      2470      2461      2463      2468      2471
      2461      2487      2489      2490      2461      2487      2489      2491
      2461      2487      2489      2492      2461      2487      2493      2494
      2461      2487      2493      2495      2461      2487      2493      2496
      2462      2461      2463      2464      2462      2461      2463      2468
      2462      2461      2487      2488      2462      2461      2487      2489
      2462      2461      2487      2493      2463      2453      2451      2474
      2463      2461      2487      2488      2463      2461      2487      2489
      2463      2461      2487      2493      2463      2468      2471      2472
      2463      2468      2471      2473      2463      2468      2471      2474
      2464      2463      2461      2487      2464      2463      2468      2469
      2464      2463      2468      2470      2464      2463      2468      2471
      2465      2464      2463      2468      2466      2464      2463      2468
      2467      2464      2463      2468      2468      2463      2461      2487
      2468      2471      2474      2475      2468      2471      2474      2476
      2469      2468      2471      2472      2469      2468      2471      2473
      2469      2468      2471      2474      2470      2468      2471      2472
      2470      2468      2471      2473      2470      2468      2471      2474
      2471      2474      2476      2477      2471      2474      2476      2481
      2472      2471      2474      2475      2472      2471      2474      2476
      2473      2471      2474      2475      2473      2471      2474      2476
      2474      2476      2477      2478      2474      2476      2477      2479
      2474      2476      2477      2480      2474      2476      2481      2482
      2474      2476      2481      2483      2474      2476      2481      2484
      2475      2474      2476      2477      2475      2474      2476      2481
      2476      2481      2484      2485      2476      2481      2484      2486
      2477      2476      2481      2482      2477      2476      2481      2483
      2477      2476      2481      2484      2478      2477      2476      2481
      2479      2477      2476      2481      2480      2477      2476      2481
      2482      2481      2484      2485      2482      2481      2484      2486
      2483      2481      2484      2485      2483      2481      2484      2486
      2487      2493      2496      2497      2487      2493      2496      2498
      2487      2493      2496      2499      2488      2487      2489      2490
      2488      2487      2489      2491      2488      2487      2489      2492
      2488      2487      2493      2494      2488      2487      2493      2495
      2488      2487      2493      2496      2489      2487      2493      2494
      2489      2487      2493      2495      2489      2487      2493      2496
      2490      2489      2487      2493      2491      2489      2487      2493
      2492      2489      2487      2493      2493      2496      2499      2500
      2493      2496      2499      2501      2493      2496      2499      2502
      2494      2493      2496      2497      2494      2493      2496      2498
      2494      2493      2496      2499      2495      2493      2496      2497
      2495      2493      2496      2498      2495      2493      2496      2499
      2496      2499      2502      2503      2496      2499      2502      2504
      2496      2499      2502      2508      2497      2496      2499      2500
      2497      2496      2499      2501      2497      2496      2499      2502
      2498      2496      2499      2500      2498      2496      2499      2501
      2498      2496      2499      2502      2499      2502      2504      2505
      2499      2502      2504      2506      2499      2502      2504      2507
      2499      2502      2508      2509      2499      2502      2508      2510
      2499      2502      2508      2511      2500      2499      2502      2503
      2500      2499      2502      2504      2500      2499      2502      2508
      2501      2499      2502      2503      2501      2499      2502      2504
      2501      2499      2502      2508      2503      2502      2504      2505
      2503      2502      2504      2506      2503      2502      2504      2507
      2503      2502      2508      2509      2503      2502      2508      2510
      2503      2502      2508      2511      2504      2502      2508      2509
      2504      2502      2508      2510      2504      2502      2508      2511
      2505      2504      2502      2508      2506      2504      2502      2508
      2507      2504      2502      2508      2512      2516      2519      2520
      2512      2516      2519      2521      2512      2516      2519      2525
      2513      2512      2516      2517      2513      2512      2516      2518
      2513      2512      2516      2519      2514      2512      2516      2517
      2514      2512      2516      2518      2514      2512      2516      2519
      2515      2512      2516      2517      2515      2512      2516      2518
      2515      2512      2516      2519      2516      2519      2525      2522
      2517      2516      2519      2520      2517      2516      2519      2521
      2517      2516      2519      2525      2518      2516      2519      2520
      2518      2516      2519      2521      2518      2516      2519      2525
      2519      2525      2522      2523      2519      2525      2522      2524
      2519      2525      2522      2526      2520      2519      2525      2522
      2521      2519      2525      2522      2522      2526      2527      2528
      2522      2526      2527      2529      2522      2526      2527      2530
      2523      2522      2526      2527      2524      2522      2526      2527
      2525      2522      2526      2527      2526      2527      2530      2531
      2526      2527      2530      2532      2526      2527      2530      2538
      2527      2530      2532      2533      2527      2530      2538      2539
      2527      2530      2538      2540      2527      2530      2538      2541
      2528      2527      2530      2531      2528      2527      2530      2532
      2528      2527      2530      2538      2529      2527      2530      2531
      2529      2527      2530      2532      2529      2527      2530      2538
      2530      2532      2533      2534      2530      2532      2533      2535
      2530      2538      2541      2542      2531      2530      2532      2533
      2531      2530      2538      2539      2531      2530      2538      2540
      2531      2530      2538      2541      2532      2530      2538      2539
      2532      2530      2538      2540      2532      2530      2538      2541
      2532      2533      2535      2536      2532      2533      2535      2537
      2532      2533      2535      2547      2533      2532      2530      2538
      2533      2535      2547      2548      2533      2535      2547      2549
      2533      2535      2547      2550      2534      2533      2535      2536
      2534      2533      2535      2537      2534      2533      2535      2547
      2535      2547      2550      2551      2535      2547      2550      2552
      2535      2547      2550      2553      2536      2535      2547      2548
      2536      2535      2547      2549      2536      2535      2547      2550
      2537      2535      2547      2548      2537      2535      2547      2549
      2537      2535      2547      2550      2538      2541      2542      2543
      2538      2541      2542      2544      2539      2538      2541      2542
      2540      2538      2541      2542      2541      2542      2544      2545
      2541      2542      2544      2546      2541      2542      2544      2594
      2542      2544      2594      2595      2542      2544      2594      2596
      2542      2544      2594      2597      2543      2542      2544      2545
      2543      2542      2544      2546      2543      2542      2544      2594
      2544      2594      2597      2598      2544      2594      2597      2599
      2544      2594      2597      2600      2545      2544      2594      2595
      2545      2544      2594      2596      2545      2544      2594      2597
      2546      2544      2594      2595      2546      2544      2594      2596
      2546      2544      2594      2597      2547      2550      2553      2554
      2547      2550      2553      2555      2548      2547      2550      2551
      2548      2547      2550      2552      2548      2547      2550      2553
      2549      2547      2550      2551      2549      2547      2550      2552
      2549      2547      2550      2553      2550      2553      2555      2556
      2550      2553      2555      2557      2551      2550      2553      2554
      2551      2550      2553      2555      2552      2550      2553      2554
      2552      2550      2553      2555      2553      2555      2557      2558
      2553      2555      2557      2559      2553      2555      2557      2560
      2554      2553      2555      2556      2554      2553      2555      2557
      2555      2557      2560      2561      2555      2557      2560      2562
      2556      2555      2557      2558      2556      2555      2557      2559
      2556      2555      2557      2560      2557      2560      2562      2563
      2557      2560      2562      2564      2558      2557      2560      2561
      2558      2557      2560      2562      2559      2557      2560      2561
      2559      2557      2560      2562      2560      2562      2564      2565
      2560      2562      2564      2566      2560      2562      2564      2567
      2561      2560      2562      2563      2561      2560      2562      2564
      2562      2564      2567      2568      2562      2564      2567      2569
      2563      2562      2564      2565      2563      2562      2564      2566
      2563      2562      2564      2567      2564      2567      2569      2570
      2564      2567      2569      2571      2565      2564      2567      2568
      2565      2564      2567      2569      2566      2564      2567      2568
      2566      2564      2567      2569      2567      2569      2571      2572
      2567      2569      2571      2573      2567      2569      2571      2574
      2568      2567      2569      2570      2568      2567      2569      2571
      2569      2571      2574      2575      2569      2571      2574      2576
      2570      2569      2571      2572      2570      2569      2571      2573
      2570      2569      2571      2574      2571      2574      2576      2577
      2571      2574      2576      2578      2572      2571      2574      2575
      2572      2571      2574      2576      2573      2571      2574      2575
      2573      2571      2574      2576      2574      2576      2578      2579
      2574      2576      2578      2580      2574      2576      2578      2581
      2575      2574      2576      2577      2575      2574      2576      2578
      2576      2578      2581      2582      2576      2578      2581      2583
      2576      2578      2581      2584      2577      2576      2578      2579
      2577      2576      2578      2580      2577      2576      2578      2581
      2578      2581      2584      2585      2578      2581      2584      2586
      2578      2581      2584      2587      2579      2578      2581      2582
      2579      2578      2581      2583      2579      2578      2581      2584
      2580      2578      2581      2582      2580      2578      2581      2583
      2580      2578      2581      2584      2581      2584      2587      2588
      2581      2584      2587      2589      2581      2584      2587      2590
      2582      2581      2584      2585      2582      2581      2584      2586
      2582      2581      2584      2587      2583      2581      2584      2585
      2583      2581      2584      2586      2583      2581      2584      2587
      2584      2587      2590      2591      2584      2587      2590      2592
      2584      2587      2590      2593      2585      2584      2587      2588
      2585      2584      2587      2589      2585      2584      2587      2590
      2586      2584      2587      2588      2586      2584      2587      2589
      2586      2584      2587      2590      2588      2587      2590      2591
      2588      2587      2590      2592      2588      2587      2590      2593
      2589      2587      2590      2591      2589      2587      2590      2592
      2589      2587      2590      2593      2594      2597      2600      2601
      2594      2597      2600      2602      2594      2597      2600      2603
      2595      2594      2597      2598      2595      2594      2597      2599
      2595      2594      2597      2600      2596      2594      2597      2598
      2596      2594      2597      2599      2596      2594      2597      2600
      2597      2600      2603      2604      2597      2600      2603      2605
      2597      2600      2603      2606      2598      2597      2600      2601
      2598      2597      2600      2602      2598      2597      2600      2603
      2599      2597      2600      2601      2599      2597      2600      2602
      2599      2597      2600      2603      2600      2603      2606      2607
      2600      2603      2606      2608      2600      2603      2606      2609
      2601      2600      2603      2604      2601      2600      2603      2605
      2601      2600      2603      2606      2602      2600      2603      2604
      2602      2600      2603      2605      2602      2600      2603      2606
      2603      2606      2609      2610      2603      2606      2609      2611
      2603      2606      2609      2612      2604      2603      2606      2607
      2604      2603      2606      2608      2604      2603      2606      2609
      2605      2603      2606      2607      2605      2603      2606      2608
      2605      2603      2606      2609      2606      2609      2612      2613
      2606      2609      2612      2614      2606      2609      2612      2615
      2607      2606      2609      2610      2607      2606      2609      2611
      2607      2606      2609      2612      2608      2606      2609      2610
      2608      2606      2609      2611      2608      2606      2609      2612
      2609      2612      2615      2616      2609      2612      2615      2617
      2609      2612      2615      2618      2610      2609      2612      2613
      2610      2609      2612      2614      2610      2609      2612      2615
      2611      2609      2612      2613      2611      2609      2612      2614
      2611      2609      2612      2615      2612      2615      2618      2619
      2612      2615      2618      2620      2612      2615      2618      2621
      2613      2612      2615      2616      2613      2612      2615      2617
      2613      2612      2615      2618      2614      2612      2615      2616
      2614      2612      2615      2617      2614      2612      2615      2618
      2615      2618      2621      2622      2615      2618      2621      2623
      2615      2618      2621      2624      2616      2615      2618      2619
      2616      2615      2618      2620      2616      2615      2618      2621
      2617      2615      2618      2619      2617      2615      2618      2620
      2617      2615      2618      2621      2618      2621      2624      2625
      2618      2621      2624      2626      2618      2621      2624      2627
      2619      2618      2621      2622      2619      2618      2621      2623
      2619      2618      2621      2624      2620      2618      2621      2622
      2620      2618      2621      2623      2620      2618      2621      2624
      2621      2624      2627      2628      2621      2624      2627      2629
      2621      2624      2627      2630      2622      2621      2624      2625
      2622      2621      2624      2626      2622      2621      2624      2627
      2623      2621      2624      2625      2623      2621      2624      2626
      2623      2621      2624      2627      2624      2627      2630      2631
      2624      2627      2630      2632      2624      2627      2630      2633
      2625      2624      2627      2628      2625      2624      2627      2629
      2625      2624      2627      2630      2626      2624      2627      2628
      2626      2624      2627      2629      2626      2624      2627      2630
      2627      2630      2633      2634      2627      2630      2633      2635
      2627      2630      2633      2636      2628      2627      2630      2631
      2628      2627      2630      2632      2628      2627      2630      2633
      2629      2627      2630      2631      2629      2627      2630      2632
      2629      2627      2630      2633      2630      2633      2636      2637
      2630      2633      2636      2638      2630      2633      2636      2639
      2631      2630      2633      2634      2631      2630      2633      2635
      2631      2630      2633      2636      2632      2630      2633      2634
      2632      2630      2633      2635      2632      2630      2633      2636
      2633      2636      2639      2640      2633      2636      2639      2641
      2633      2636      2639      2642      2634      2633      2636      2637
      2634      2633      2636      2638      2634      2633      2636      2639
      2635      2633      2636      2637      2635      2633      2636      2638
      2635      2633      2636      2639      2637      2636      2639      2640
      2637      2636      2639      2641      2637      2636      2639      2642
      2638      2636      2639      2640      2638      2636      2639      2641
      2638      2636      2639      2642      2643      2656      2659      2660
      2643      2656      2659      2661      2643      2656      2659      2666
      2644      2643      2648      2649      2644      2643      2648      2650
      2644      2643      2648      2651      2644      2643      2652      2653
      2644      2643      2652      2654      2644      2643      2652      2655
      2644      2643      2656      2657      2644      2643      2656      2658
      2644      2643      2656      2659      2645      2644      2643      2648
      2645      2644      2643      2652      2645      2644      2643      2656
      2646      2644      2643      2648      2646      2644      2643      2652
      2646      2644      2643      2656      2647      2644      2643      2648
      2647      2644      2643      2652      2647      2644      2643      2656
      2648      2643      2652      2653      2648      2643      2652      2654
      2648      2643      2652      2655      2648      2643      2656      2657
      2648      2643      2656      2658      2648      2643      2656      2659
      2649      2648      2643      2652      2649      2648      2643      2656
      2650      2648      2643      2652      2650      2648      2643      2656
      2651      2648      2643      2652      2651      2648      2643      2656
      2652      2643      2656      2657      2652      2643      2656      2658
      2652      2643      2656      2659      2653      2652      2643      2656
      2654      2652      2643      2656      2655      2652      2643      2656
      2656      2659      2666      2662      2657      2656      2659      2660
      2657      2656      2659      2661      2657      2656      2659      2666
      2658      2656      2659      2660      2658      2656      2659      2661
      2658      2656      2659      2666      2659      2666      2662      2663
      2659      2666      2662      2664      2659      2666      2662      2665
      2660      2659      2666      2662      2661      2659      2666      2662
      2662      2665      2667      2668      2662      2665      2667      2669
      2662      2665      2667      2672      2663      2662      2665      2667
      2664      2662      2665      2667      2665      2667      2672      2670
      2665      2667      2672      2673      2665      2667      2672      2674
      2666      2662      2665      2667      2667      2672      2670      2671
      2667      2672      2670      2722      2667      2672      2674      2675
      2667      2672      2674      2676      2667      2672      2674      2678
      2668      2667      2672      2670      2668      2667      2672      2673
      2668      2667      2672      2674      2669      2667      2672      2670
      2669      2667      2672      2673      2669      2667      2672      2674
      2670      2672      2674      2675      2670      2672      2674      2676
      2670      2672      2674      2678      2670      2722      2724      2725
      2670      2722      2724      2726      2670      2722      2724      2727
      2671      2670      2672      2673      2671      2670      2672      2674
      2671      2670      2722      2723      2671      2670      2722      2724
      2672      2670      2722      2723      2672      2670      2722      2724
      2672      2674      2676      2677      2672      2674      2678      2679
      2672      2674      2678      2680      2673      2672      2670      2722
      2673      2672      2674      2675      2673      2672      2674      2676
      2673      2672      2674      2678      2674      2672      2670      2722
      2674      2678      2680      2681      2674      2678      2680      2682
      2675      2674      2676      2677      2675      2674      2678      2679
      2675      2674      2678      2680      2676      2674      2678      2679
      2676      2674      2678      2680      2677      2676      2674      2678
      2678      2680      2682      2683      2678      2680      2682      2684
      2678      2680      2682      2685      2679      2678      2680      2681
      2679      2678      2680      2682      2680      2682      2685      2686
      2680      2682      2685      2687      2680      2682      2685      2688
      2681      2680      2682      2683      2681      2680      2682      2684
      2681      2680      2682      2685      2682      2685      2688      2689
      2682      2685      2688      2690      2682      2685      2688      2691
      2683      2682      2685      2686      2683      2682      2685      2687
      2683      2682      2685      2688      2684      2682      2685      2686
      2684      2682      2685      2687      2684      2682      2685      2688
      2685      2688      2691      2692      2685      2688      2691      2693
      2685      2688      2691      2694      2686      2685      2688      2689
      2686      2685      2688      2690      2686      2685      2688      2691
      2687      2685      2688      2689      2687      2685      2688      2690
      2687      2685      2688      2691      2688      2691      2694      2695
      2688      2691      2694      2696      2688      2691      2694      2697
      2689      2688      2691      2692      2689      2688      2691      2693
      2689      2688      2691      2694      2690      2688      2691      2692
      2690      2688      2691      2693      2690      2688      2691      2694
      2691      2694      2697      2698      2691      2694      2697      2699
      2691      2694      2697      2700      2692      2691      2694      2695
      2692      2691      2694      2696      2692      2691      2694      2697
      2693      2691      2694      2695      2693      2691      2694      2696
      2693      2691      2694      2697      2694      2697      2700      2701
      2694      2697      2700      2702      2694      2697      2700      2703
      2695      2694      2697      2698      2695      2694      2697      2699
      2695      2694      2697      2700      2696      2694      2697      2698
      2696      2694      2697      2699      2696      2694      2697      2700
      2697      2700      2703      2704      2697      2700      2703      2705
      2697      2700      2703      2706      2698      2697      2700      2701
      2698      2697      2700      2702      2698      2697      2700      2703
      2699      2697      2700      2701      2699      2697      2700      2702
      2699      2697      2700      2703      2700      2703      2706      2707
      2700      2703      2706      2708      2700      2703      2706      2709
      2701      2700      2703      2704      2701      2700      2703      2705
      2701      2700      2703      2706      2702      2700      2703      2704
      2702      2700      2703      2705      2702      2700      2703      2706
      2703      2706      2709      2710      2703      2706      2709      2711
      2703      2706      2709      2712      2704      2703      2706      2707
      2704      2703      2706      2708      2704      2703      2706      2709
      2705      2703      2706      2707      2705      2703      2706      2708
      2705      2703      2706      2709      2706      2709      2712      2713
      2706      2709      2712      2714      2706      2709      2712      2715
      2707      2706      2709      2710      2707      2706      2709      2711
      2707      2706      2709      2712      2708      2706      2709      2710
      2708      2706      2709      2711      2708      2706      2709      2712
      2709      2712      2715      2716      2709      2712      2715      2717
      2709      2712      2715      2718      2710      2709      2712      2713
      2710      2709      2712      2714      2710      2709      2712      2715
      2711      2709      2712      2713      2711      2709      2712      2714
      2711      2709      2712      2715      2712      2715      2718      2719
      2712      2715      2718      2720      2712      2715      2718      2721
      2713      2712      2715      2716      2713      2712      2715      2717
      2713      2712      2715      2718      2714      2712      2715      2716
      2714      2712      2715      2717      2714      2712      2715      2718
      2716      2715      2718      2719      2716      2715      2718      2720
      2716      2715      2718      2721      2717      2715      2718      2719
      2717      2715      2718      2720      2717      2715      2718      2721
      2722      2724      2727      2728      2722      2724      2727      2729
      2722      2724      2727      2730      2723      2722      2724      2725
      2723      2722      2724      2726      2723      2722      2724      2727
      2724      2727      2730      2731      2724      2727      2730      2732
      2724      2727      2730      2733      2725      2724      2727      2728
      2725      2724      2727      2729      2725      2724      2727      2730
      2726      2724      2727      2728      2726      2724      2727      2729
      2726      2724      2727      2730      2727      2730      2733      2734
      2727      2730      2733      2735      2727      2730      2733      2736
      2728      2727      2730      2731      2728      2727      2730      2732
      2728      2727      2730      2733      2729      2727      2730      2731
      2729      2727      2730      2732      2729      2727      2730      2733
      2730      2733      2736      2737      2730      2733      2736      2738
      2730      2733      2736      2739      2731      2730      2733      2734
      2731      2730      2733      2735      2731      2730      2733      2736
      2732      2730      2733      2734      2732      2730      2733      2735
      2732      2730      2733      2736      2733      2736      2739      2740
      2733      2736      2739      2741      2733      2736      2739      2742
      2734      2733      2736      2737      2734      2733      2736      2738
      2734      2733      2736      2739      2735      2733      2736      2737
      2735      2733      2736      2738      2735      2733      2736      2739
      2736      2739      2742      2743      2736      2739      2742      2744
      2736      2739      2742      2745      2737      2736      2739      2740
      2737      2736      2739      2741      2737      2736      2739      2742
      2738      2736      2739      2740      2738      2736      2739      2741
      2738      2736      2739      2742      2739      2742      2745      2746
      2739      2742      2745      2747      2740      2739      2742      2743
      2740      2739      2742      2744      2740      2739      2742      2745
      2741      2739      2742      2743      2741      2739      2742      2744
      2741      2739      2742      2745      2742      2745      2747      2748
      2742      2745      2747      2749      2743      2742      2745      2746
      2743      2742      2745      2747      2744      2742      2745      2746
      2744      2742      2745      2747      2745      2747      2749      2750
      2745      2747      2749      2751      2745      2747      2749      2752
      2746      2745      2747      2748      2746      2745      2747      2749
      2747      2749      2752      2753      2747      2749      2752      2754
      2747      2749      2752      2755      2748      2747      2749      2750
      2748      2747      2749      2751      2748      2747      2749      2752
      2749      2752      2755      2756      2749      2752      2755      2757
      2749      2752      2755      2758      2750      2749      2752      2753
      2750      2749      2752      2754      2750      2749      2752      2755
      2751      2749      2752      2753      2751      2749      2752      2754
      2751      2749      2752      2755      2752      2755      2758      2759
      2752      2755      2758      2760      2752      2755      2758      2761
      2753      2752      2755      2756      2753      2752      2755      2757
      2753      2752      2755      2758      2754      2752      2755      2756
      2754      2752      2755      2757      2754      2752      2755      2758
      2755      2758      2761      2762      2755      2758      2761      2763
      2755      2758      2761      2764      2756      2755      2758      2759
      2756      2755      2758      2760      2756      2755      2758      2761
      2757      2755      2758      2759      2757      2755      2758      2760
      2757      2755      2758      2761      2758      2761      2764      2765
      2758      2761      2764      2766      2758      2761      2764      2767
      2759      2758      2761      2762      2759      2758      2761      2763
      2759      2758      2761      2764      2760      2758      2761      2762
      2760      2758      2761      2763      2760      2758      2761      2764
      2761      2764      2767      2768      2761      2764      2767      2769
      2761      2764      2767      2770      2762      2761      2764      2765
      2762      2761      2764      2766      2762      2761      2764      2767
      2763      2761      2764      2765      2763      2761      2764      2766
      2763      2761      2764      2767      2764      2767      2770      2771
      2764      2767      2770      2772      2764      2767      2770      2773
      2765      2764      2767      2768      2765      2764      2767      2769
      2765      2764      2767      2770      2766      2764      2767      2768
      2766      2764      2767      2769      2766      2764      2767      2770
      2768      2767      2770      2771      2768      2767      2770      2772
      2768      2767      2770      2773      2769      2767      2770      2771
      2769      2767      2770      2772      2769      2767      2770      2773
      2774      2778      2781      2782      2774      2778      2781      2812
      2774      2820      2817      2812      2774      2820      2817      2818
      2774      2820      2817      2819      2775      2774      2776      2777
      2775      2774      2778      2779      2775      2774      2778      2780
      2775      2774      2778      2781      2775      2774      2820      2817
      2775      2774      2820      2821      2775      2774      2820      2822
      2776      2774      2778      2779      2776      2774      2778      2780
      2776      2774      2778      2781      2776      2774      2820      2817
      2776      2774      2820      2821      2776      2774      2820      2822
      2777      2776      2774      2778      2777      2776      2774      2820
      2778      2774      2820      2817      2778      2774      2820      2821
      2778      2774      2820      2822      2778      2781      2782      2783
      2778      2781      2782      2784      2778      2781      2812      2810
      2778      2781      2812      2813      2778      2781      2812      2817
      2779      2778      2774      2820      2779      2778      2781      2782
      2779      2778      2781      2812      2780      2778      2774      2820
      2780      2778      2781      2782      2780      2778      2781      2812
      2781      2778      2774      2820      2781      2782      2784      2785
      2781      2782      2784      2786      2781      2782      2784      2787
      2781      2812      2810      2787      2781      2812      2810      2807
      2781      2812      2810      2811      2781      2812      2813      2814
      2781      2812      2813      2815      2781      2812      2813      2816
      2781      2812      2817      2818      2781      2812      2817      2819
      2781      2812      2817      2820      2782      2781      2812      2810
      2782      2781      2812      2813      2782      2781      2812      2817
      2782      2784      2787      2788      2782      2784      2787      2789
      2782      2784      2787      2810      2783      2782      2781      2812
      2783      2782      2784      2785      2783      2782      2784      2786
      2783      2782      2784      2787      2784      2782      2781      2812
      2784      2787      2789      2790      2784      2787      2789      2791
      2784      2787      2789      2799      2784      2787      2810      2807
      2784      2787      2810      2811      2784      2787      2810      2812
      2785      2784      2787      2788      2785      2784      2787      2789
      2785      2784      2787      2810      2786      2784      2787      2788
      2786      2784      2787      2789      2786      2784      2787      2810
      2787      2789      2791      2792      2787      2789      2791      2793
      2787      2789      2791      2794      2787      2789      2799      2797
      2787      2789      2799      2800      2787      2789      2799      2804
      2787      2810      2807      2804      2787      2810      2807      2808
      2787      2810      2807      2809      2787      2810      2812      2813
      2787      2810      2812      2817      2788      2787      2789      2790
      2788      2787      2789      2791      2788      2787      2789      2799
      2788      2787      2810      2807      2788      2787      2810      2811
      2788      2787      2810      2812      2789      2787      2810      2807
      2789      2787      2810      2811      2789      2787      2810      2812
      2789      2791      2794      2795      2789      2791      2794      2796
      2789      2791      2794      2797      2789      2799      2797      2794
      2789      2799      2797      2798      2789      2799      2797      2823
      2789      2799      2800      2801      2789      2799      2800      2802
      2789      2799      2800      2803      2789      2799      2804      2805
      2789      2799      2804      2806      2789      2799      2804      2807
      2790      2789      2787      2810      2790      2789      2791      2792
      2790      2789      2791      2793      2790      2789      2791      2794
      2790      2789      2799      2797      2790      2789      2799      2800
      2790      2789      2799      2804      2791      2789      2787      2810
      2791      2789      2799      2797      2791      2789      2799      2800
      2791      2789      2799      2804      2791      2794      2797      2798
      2791      2794      2797      2799      2791      2794      2797      2823
      2792      2791      2789      2799      2792      2791      2794      2795
      2792      2791      2794      2796      2792      2791      2794      2797
      2793      2791      2789      2799      2793      2791      2794      2795
      2793      2791      2794      2796      2793      2791      2794      2797
      2794      2791      2789      2799      2794      2797      2799      2800
      2794      2797      2799      2804      2794      2797      2823      2824
      2794      2797      2823      2825      2794      2797      2823      2829
      2795      2794      2797      2798      2795      2794      2797      2799
      2795      2794      2797      2823      2796      2794      2797      2798
      2796      2794      2797      2799      2796      2794      2797      2823
      2797      2799      2800      2801      2797      2799      2800      2802
      2797      2799      2800      2803      2797      2799      2804      2805
      2797      2799      2804      2806      2797      2799      2804      2807
      2797      2823      2825      2826      2797      2823      2825      2827
      2797      2823      2825      2828      2797      2823      2829      2830
      2797      2823      2829      2831      2797      2823      2829      2832
      2798      2797      2799      2800      2798      2797      2799      2804
      2798      2797      2823      2824      2798      2797      2823      2825
      2798      2797      2823      2829      2799      2789      2787      2810
      2799      2797      2823      2824      2799      2797      2823      2825
      2799      2797      2823      2829      2799      2804      2807      2808
      2799      2804      2807      2809      2799      2804      2807      2810
      2800      2799      2797      2823      2800      2799      2804      2805
      2800      2799      2804      2806      2800      2799      2804      2807
      2801      2800      2799      2804      2802      2800      2799      2804
      2803      2800      2799      2804      2804      2799      2797      2823
      2804      2807      2810      2811      2804      2807      2810      2812
      2805      2804      2807      2808      2805      2804      2807      2809
      2805      2804      2807      2810      2806      2804      2807      2808
      2806      2804      2807      2809      2806      2804      2807      2810
      2807      2810      2812      2813      2807      2810      2812      2817
      2808      2807      2810      2811      2808      2807      2810      2812
      2809      2807      2810      2811      2809      2807      2810      2812
      2810      2812      2813      2814      2810      2812      2813      2815
      2810      2812      2813      2816      2810      2812      2817      2818
      2810      2812      2817      2819      2810      2812      2817      2820
      2811      2810      2812      2813      2811      2810      2812      2817
      2812      2817      2820      2821      2812      2817      2820      2822
      2813      2812      2817      2818      2813      2812      2817      2819
      2813      2812      2817      2820      2814      2813      2812      2817
      2815      2813      2812      2817      2816      2813      2812      2817
      2818      2817      2820      2821      2818      2817      2820      2822
      2819      2817      2820      2821      2819      2817      2820      2822
      2823      2829      2832      2833      2823      2829      2832      2834
      2823      2829      2832      2835      2824      2823      2825      2826
      2824      2823      2825      2827      2824      2823      2825      2828
      2824      2823      2829      2830      2824      2823      2829      2831
      2824      2823      2829      2832      2825      2823      2829      2830
      2825      2823      2829      2831      2825      2823      2829      2832
      2826      2825      2823      2829      2827      2825      2823      2829
      2828      2825      2823      2829      2829      2832      2835      2836
      2829      2832      2835      2837      2829      2832      2835      2838
      2830      2829      2832      2833      2830      2829      2832      2834
      2830      2829      2832      2835      2831      2829      2832      2833
      2831      2829      2832      2834      2831      2829      2832      2835
      2832      2835      2838      2839      2832      2835      2838      2840
      2832      2835      2838      2844      2833      2832      2835      2836
      2833      2832      2835      2837      2833      2832      2835      2838
      2834      2832      2835      2836      2834      2832      2835      2837
      2834      2832      2835      2838      2835      2838      2840      2841
      2835      2838      2840      2842      2835      2838      2840      2843
      2835      2838      2844      2845      2835      2838      2844      2846
      2835      2838      2844      2847      2836      2835      2838      2839
      2836      2835      2838      2840      2836      2835      2838      2844
      2837      2835      2838      2839      2837      2835      2838      2840
      2837      2835      2838      2844      2839      2838      2840      2841
      2839      2838      2840      2842      2839      2838      2840      2843
      2839      2838      2844      2845      2839      2838      2844      2846
      2839      2838      2844      2847      2840      2838      2844      2845
      2840      2838      2844      2846      2840      2838      2844      2847
      2841      2840      2838      2844      2842      2840      2838      2844
      2843      2840      2838      2844      2848      2861      2864      2865
      2848      2861      2864      2866      2848      2861      2864      2871
      2849      2848      2853      2854      2849      2848      2853      2855
      2849      2848      2853      2856      2849      2848      2857      2858
      2849      2848      2857      2859      2849      2848      2857      2860
      2849      2848      2861      2862      2849      2848      2861      2863
      2849      2848      2861      2864      2850      2849      2848      2853
      2850      2849      2848      2857      2850      2849      2848      2861
      2851      2849      2848      2853      2851      2849      2848      2857
      2851      2849      2848      2861      2852      2849      2848      2853
      2852      2849      2848      2857      2852      2849      2848      2861
      2853      2848      2857      2858      2853      2848      2857      2859
      2853      2848      2857      2860      2853      2848      2861      2862
      2853      2848      2861      2863      2853      2848      2861      2864
      2854      2853      2848      2857      2854      2853      2848      2861
      2855      2853      2848      2857      2855      2853      2848      2861
      2856      2853      2848      2857      2856      2853      2848      2861
      2857      2848      2861      2862      2857      2848      2861      2863
      2857      2848      2861      2864      2858      2857      2848      2861
      2859      2857      2848      2861      2860      2857      2848      2861
      2861      2864      2871      2867      2862      2861      2864      2865
      2862      2861      2864      2866      2862      2861      2864      2871
      2863      2861      2864      2865      2863      2861      2864      2866
      2863      2861      2864      2871      2864      2871      2867      2868
      2864      2871      2867      2869      2864      2871      2867      2870
      2865      2864      2871      2867      2866      2864      2871      2867
      2867      2870      2872      2873      2867      2870      2872      2874
      2867      2870      2872      2877      2868      2867      2870      2872
      2869      2867      2870      2872      2870      2872      2877      2875
      2870      2872      2877      2878      2870      2872      2877      2879
      2871      2867      2870      2872      2872      2877      2875      2876
      2872      2877      2875      2927      2872      2877      2879      2880
      2872      2877      2879      2881      2872      2877      2879      2883
      2873      2872      2877      2875      2873      2872      2877      2878
      2873      2872      2877      2879      2874      2872      2877      2875
      2874      2872      2877      2878      2874      2872      2877      2879
      2875      2877      2879      2880      2875      2877      2879      2881
      2875      2877      2879      2883      2875      2927      2929      2930
      2875      2927      2929      2931      2875      2927      2929      2932
      2876      2875      2877      2878      2876      2875      2877      2879
      2876      2875      2927      2928      2876      2875      2927      2929
      2877      2875      2927      2928      2877      2875      2927      2929
      2877      2879      2881      2882      2877      2879      2883      2884
      2877      2879      2883      2885      2878      2877      2875      2927
      2878      2877      2879      2880      2878      2877      2879      2881
      2878      2877      2879      2883      2879      2877      2875      2927
      2879      2883      2885      2886      2879      2883      2885      2887
      2880      2879      2881      2882      2880      2879      2883      2884
      2880      2879      2883      2885      2881      2879      2883      2884
      2881      2879      2883      2885      2882      2881      2879      2883
      2883      2885      2887      2888      2883      2885      2887      2889
      2883      2885      2887      2890      2884      2883      2885      2886
      2884      2883      2885      2887      2885      2887      2890      2891
      2885      2887      2890      2892      2885      2887      2890      2893
      2886      2885      2887      2888      2886      2885      2887      2889
      2886      2885      2887      2890      2887      2890      2893      2894
      2887      2890      2893      2895      2887      2890      2893      2896
      2888      2887      2890      2891      2888      2887      2890      2892
      2888      2887      2890      2893      2889      2887      2890      2891
      2889      2887      2890      2892      2889      2887      2890      2893
      2890      2893      2896      2897      2890      2893      2896      2898
      2890      2893      2896      2899      2891      2890      2893      2894
      2891      2890      2893      2895      2891      2890      2893      2896
      2892      2890      2893      2894      2892      2890      2893      2895
      2892      2890      2893      2896      2893      2896      2899      2900
      2893      2896      2899      2901      2893      2896      2899      2902
      2894      2893      2896      2897      2894      2893      2896      2898
      2894      2893      2896      2899      2895      2893      2896      2897
      2895      2893      2896      2898      2895      2893      2896      2899
      2896      2899      2902      2903      2896      2899      2902      2904
      2896      2899      2902      2905      2897      2896      2899      2900
      2897      2896      2899      2901      2897      2896      2899      2902
      2898      2896      2899      2900      2898      2896      2899      2901
      2898      2896      2899      2902      2899      2902      2905      2906
      2899      2902      2905      2907      2899      2902      2905      2908
      2900      2899      2902      2903      2900      2899      2902      2904
      2900      2899      2902      2905      2901      2899      2902      2903
      2901      2899      2902      2904      2901      2899      2902      2905
      2902      2905      2908      2909      2902      2905      2908      2910
      2902      2905      2908      2911      2903      2902      2905      2906
      2903      2902      2905      2907      2903      2902      2905      2908
      2904      2902      2905      2906      2904      2902      2905      2907
      2904      2902      2905      2908      2905      2908      2911      2912
      2905      2908      2911      2913      2905      2908      2911      2914
      2906      2905      2908      2909      2906      2905      2908      2910
      2906      2905      2908      2911      2907      2905      2908      2909
      2907      2905      2908      2910      2907      2905      2908      2911
      2908      2911      2914      2915      2908      2911      2914      2916
      2908      2911      2914      2917      2909      2908      2911      2912
      2909      2908      2911      2913      2909      2908      2911      2914
      2910      2908      2911      2912      2910      2908      2911      2913
      2910      2908      2911      2914      2911      2914      2917      2918
      2911      2914      2917      2919      2911      2914      2917      2920
      2912      2911      2914      2915      2912      2911      2914      2916
      2912      2911      2914      2917      2913      2911      2914      2915
      2913      2911      2914      2916      2913      2911      2914      2917
      2914      2917      2920      2921      2914      2917      2920      2922
      2914      2917      2920      2923      2915      2914      2917      2918
      2915      2914      2917      2919      2915      2914      2917      2920
      2916      2914      2917      2918      2916      2914      2917      2919
      2916      2914      2917      2920      2917      2920      2923      2924
      2917      2920      2923      2925      2917      2920      2923      2926
      2918      2917      2920      2921      2918      2917      2920      2922
      2918      2917      2920      2923      2919      2917      2920      2921
      2919      2917      2920      2922      2919      2917      2920      2923
      2921      2920      2923      2924      2921      2920      2923      2925
      2921      2920      2923      2926      2922      2920      2923      2924
      2922      2920      2923      2925      2922      2920      2923      2926
      2927      2929      2932      2933      2927      2929      2932      2934
      2927      2929      2932      2935      2928      2927      2929      2930
      2928      2927      2929      2931      2928      2927      2929      2932
      2929      2932      2935      2936      2929      2932      2935      2937
      2929      2932      2935      2938      2930      2929      2932      2933
      2930      2929      2932      2934      2930      2929      2932      2935
      2931      2929      2932      2933      2931      2929      2932      2934
      2931      2929      2932      2935      2932      2935      2938      2939
      2932      2935      2938      2940      2932      2935      2938      2941
      2933      2932      2935      2936      2933      2932      2935      2937
      2933      2932      2935      2938      2934      2932      2935      2936
      2934      2932      2935      2937      2934      2932      2935      2938
      2935      2938      2941      2942      2935      2938      2941      2943
      2935      2938      2941      2944      2936      2935      2938      2939
      2936      2935      2938      2940      2936      2935      2938      2941
      2937      2935      2938      2939      2937      2935      2938      2940
      2937      2935      2938      2941      2938      2941      2944      2945
      2938      2941      2944      2946      2938      2941      2944      2947
      2939      2938      2941      2942      2939      2938      2941      2943
      2939      2938      2941      2944      2940      2938      2941      2942
      2940      2938      2941      2943      2940      2938      2941      2944
      2941      2944      2947      2948      2941      2944      2947      2949
      2941      2944      2947      2950      2942      2941      2944      2945
      2942      2941      2944      2946      2942      2941      2944      2947
      2943      2941      2944      2945      2943      2941      2944      2946
      2943      2941      2944      2947      2944      2947      2950      2951
      2944      2947      2950      2952      2945      2944      2947      2948
      2945      2944      2947      2949      2945      2944      2947      2950
      2946      2944      2947      2948      2946      2944      2947      2949
      2946      2944      2947      2950      2947      2950      2952      2953
      2947      2950      2952      2954      2948      2947      2950      2951
      2948      2947      2950      2952      2949      2947      2950      2951
      2949      2947      2950      2952      2950      2952      2954      2955
      2950      2952      2954      2956      2950      2952      2954      2957
      2951      2950      2952      2953      2951      2950      2952      2954
      2952      2954      2957      2958      2952      2954      2957      2959
      2952      2954      2957      2960      2953      2952      2954      2955
      2953      2952      2954      2956      2953      2952      2954      2957
      2954      2957      2960      2961      2954      2957      2960      2962
      2954      2957      2960      2963      2955      2954      2957      2958
      2955      2954      2957      2959      2955      2954      2957      2960
      2956      2954      2957      2958      2956      2954      2957      2959
      2956      2954      2957      2960      2957      2960      2963      2964
      2957      2960      2963      2965      2957      2960      2963      2966
      2958      2957      2960      2961      2958      2957      2960      2962
      2958      2957      2960      2963      2959      2957      2960      2961
      2959      2957      2960      2962      2959      2957      2960      2963
      2960      2963      2966      2967      2960      2963      2966      2968
      2960      2963      2966      2969      2961      2960      2963      2964
      2961      2960      2963      2965      2961      2960      2963      2966
      2962      2960      2963      2964      2962      2960      2963      2965
      2962      2960      2963      2966      2963      2966      2969      2970
      2963      2966      2969      2971      2963      2966      2969      2972
      2964      2963      2966      2967      2964      2963      2966      2968
      2964      2963      2966      2969      2965      2963      2966      2967
      2965      2963      2966      2968      2965      2963      2966      2969
      2966      2969      2972      2973      2966      2969      2972      2974
      2966      2969      2972      2975      2967      2966      2969      2970
      2967      2966      2969      2971      2967      2966      2969      2972
      2968      2966      2969      2970      2968      2966      2969      2971
      2968      2966      2969      2972      2969      2972      2975      2976
      2969      2972      2975      2977      2969      2972      2975      2978
      2970      2969      2972      2973      2970      2969      2972      2974
      2970      2969      2972      2975      2971      2969      2972      2973
      2971      2969      2972      2974      2971      2969      2972      2975
      2973      2972      2975      2976      2973      2972      2975      2977
      2973      2972      2975      2978      2974      2972      2975      2976
      2974      2972      2975      2977      2974      2972      2975      2978
      2979      2992      2995      2996      2979      2992      2995      2997
      2979      2992      2995      3002      2980      2979      2984      2985
      2980      2979      2984      2986      2980      2979      2984      2987
      2980      2979      2988      2989      2980      2979      2988      2990
      2980      2979      2988      2991      2980      2979      2992      2993
      2980      2979      2992      2994      2980      2979      2992      2995
      2981      2980      2979      2984      2981      2980      2979      2988
      2981      2980      2979      2992      2982      2980      2979      2984
      2982      2980      2979      2988      2982      2980      2979      2992
      2983      2980      2979      2984      2983      2980      2979      2988
      2983      2980      2979      2992      2984      2979      2988      2989
      2984      2979      2988      2990      2984      2979      2988      2991
      2984      2979      2992      2993      2984      2979      2992      2994
      2984      2979      2992      2995      2985      2984      2979      2988
      2985      2984      2979      2992      2986      2984      2979      2988
      2986      2984      2979      2992      2987      2984      2979      2988
      2987      2984      2979      2992      2988      2979      2992      2993
      2988      2979      2992      2994      2988      2979      2992      2995
      2989      2988      2979      2992      2990      2988      2979      2992
      2991      2988      2979      2992      2992      2995      3002      2998
      2993      2992      2995      2996      2993      2992      2995      2997
      2993      2992      2995      3002      2994      2992      2995      2996
      2994      2992      2995      2997      2994      2992      2995      3002
      2995      3002      2998      2999      2995      3002      2998      3000
      2995      3002      2998      3001      2996      2995      3002      2998
      2997      2995      3002      2998      2998      3001      3003      3004
      2998      3001      3003      3005      2998      3001      3003      3008
      2999      2998      3001      3003      3000      2998      3001      3003
      3001      3003      3008      3006      3001      3003      3008      3009
      3001      3003      3008      3010      3002      2998      3001      3003
      3003      3008      3006      3007      3003      3008      3006      3058
      3003      3008      3010      3011      3003      3008      3010      3012
      3003      3008      3010      3014      3004      3003      3008      3006
      3004      3003      3008      3009      3004      3003      3008      3010
      3005      3003      3008      3006      3005      3003      3008      3009
      3005      3003      3008      3010      3006      3008      3010      3011
      3006      3008      3010      3012      3006      3008      3010      3014
      3006      3058      3060      3061      3006      3058      3060      3062
      3006      3058      3060      3063      3007      3006      3008      3009
      3007      3006      3008      3010      3007      3006      3058      3059
      3007      3006      3058      3060      3008      3006      3058      3059
      3008      3006      3058      3060      3008      3010      3012      3013
      3008      3010      3014      3015      3008      3010      3014      3016
      3009      3008      3006      3058      3009      3008      3010      3011
      3009      3008      3010      3012      3009      3008      3010      3014
      3010      3008      3006      3058      3010      3014      3016      3017
      3010      3014      3016      3018      3011      3010      3012      3013
      3011      3010      3014      3015      3011      3010      3014      3016
      3012      3010      3014      3015      3012      3010      3014      3016
      3013      3012      3010      3014      3014      3016      3018      3019
      3014      3016      3018      3020      3014      3016      3018      3021
      3015      3014      3016      3017      3015      3014      3016      3018
      3016      3018      3021      3022      3016      3018      3021      3023
      3016      3018      3021      3024      3017      3016      3018      3019
      3017      3016      3018      3020      3017      3016      3018      3021
      3018      3021      3024      3025      3018      3021      3024      3026
      3018      3021      3024      3027      3019      3018      3021      3022
      3019      3018      3021      3023      3019      3018      3021      3024
      3020      3018      3021      3022      3020      3018      3021      3023
      3020      3018      3021      3024      3021      3024      3027      3028
      3021      3024      3027      3029      3021      3024      3027      3030
      3022      3021      3024      3025      3022      3021      3024      3026
      3022      3021      3024      3027      3023      3021      3024      3025
      3023      3021      3024      3026      3023      3021      3024      3027
      3024      3027      3030      3031      3024      3027      3030      3032
      3024      3027      3030      3033      3025      3024      3027      3028
      3025      3024      3027      3029      3025      3024      3027      3030
      3026      3024      3027      3028      3026      3024      3027      3029
      3026      3024      3027      3030      3027      3030      3033      3034
      3027      3030      3033      3035      3027      3030      3033      3036
      3028      3027      3030      3031      3028      3027      3030      3032
      3028      3027      3030      3033      3029      3027      3030      3031
      3029      3027      3030      3032      3029      3027      3030      3033
      3030      3033      3036      3037      3030      3033      3036      3038
      3030      3033      3036      3039      3031      3030      3033      3034
      3031      3030      3033      3035      3031      3030      3033      3036
      3032      3030      3033      3034      3032      3030      3033      3035
      3032      3030      3033      3036      3033      3036      3039      3040
      3033      3036      3039      3041      3033      3036      3039      3042
      3034      3033      3036      3037      3034      3033      3036      3038
      3034      3033      3036      3039      3035      3033      3036      3037
      3035      3033      3036      3038      3035      3033      3036      3039
      3036      3039      3042      3043      3036      3039      3042      3044
      3036      3039      3042      3045      3037      3036      3039      3040
      3037      3036      3039      3041      3037      3036      3039      3042
      3038      3036      3039      3040      3038      3036      3039      3041
      3038      3036      3039      3042      3039      3042      3045      3046
      3039      3042      3045      3047      3039      3042      3045      3048
      3040      3039      3042      3043      3040      3039      3042      3044
      3040      3039      3042      3045      3041      3039      3042      3043
      3041      3039      3042      3044      3041      3039      3042      3045
      3042      3045      3048      3049      3042      3045      3048      3050
      3042      3045      3048      3051      3043      3042      3045      3046
      3043      3042      3045      3047      3043      3042      3045      3048
      3044      3042      3045      3046      3044      3042      3045      3047
      3044      3042      3045      3048      3045      3048      3051      3052
      3045      3048      3051      3053      3045      3048      3051      3054
      3046      3045      3048      3049      3046      3045      3048      3050
      3046      3045      3048      3051      3047      3045      3048      3049
      3047      3045      3048      3050      3047      3045      3048      3051
      3048      3051      3054      3055      3048      3051      3054      3056
      3048      3051      3054      3057      3049      3048      3051      3052
      3049      3048      3051      3053      3049      3048      3051      3054
      3050      3048      3051      3052      3050      3048      3051      3053
      3050      3048      3051      3054      3052      3051      3054      3055
      3052      3051      3054      3056      3052      3051      3054      3057
      3053      3051      3054      3055      3053      3051      3054      3056
      3053      3051      3054      3057      3058      3060      3063      3064
      3058      3060      3063      3065      3058      3060      3063      3066
      3059      3058      3060      3061      3059      3058      3060      3062
      3059      3058      3060      3063      3060      3063      3066      3067
      3060      3063      3066      3068      3060      3063      3066      3069
      3061      3060      3063      3064      3061      3060      3063      3065
      3061      3060      3063      3066      3062      3060      3063      3064
      3062      3060      3063      3065      3062      3060      3063      3066
      3063      3066      3069      3070      3063      3066      3069      3071
      3063      3066      3069      3072      3064      3063      3066      3067
      3064      3063      3066      3068      3064      3063      3066      3069
      3065      3063      3066      3067      3065      3063      3066      3068
      3065      3063      3066      3069      3066      3069      3072      3073
      3066      3069      3072      3074      3066      3069      3072      3075
      3067      3066      3069      3070      3067      3066      3069      3071
      3067      3066      3069      3072      3068      3066      3069      3070
      3068      3066      3069      3071      3068      3066      3069      3072
      3069      3072      3075      3076      3069      3072      3075      3077
      3069      3072      3075      3078      3070      3069      3072      3073
      3070      3069      3072      3074      3070      3069      3072      3075
      3071      3069      3072      3073      3071      3069      3072      3074
      3071      3069      3072      3075      3072      3075      3078      3079
      3072      3075      3078      3080      3072      3075      3078      3081
      3073      3072      3075      3076      3073      3072      3075      3077
      3073      3072      3075      3078      3074      3072      3075      3076
      3074      3072      3075      3077      3074      3072      3075      3078
      3075      3078      3081      3082      3075      3078      3081      3083
      3076      3075      3078      3079      3076      3075      3078      3080
      3076      3075      3078      3081      3077      3075      3078      3079
      3077      3075      3078      3080      3077      3075      3078      3081
      3078      3081      3083      3084      3078      3081      3083      3085
      3079      3078      3081      3082      3079      3078      3081      3083
      3080      3078      3081      3082      3080      3078      3081      3083
      3081      3083      3085      3086      3081      3083      3085      3087
      3081      3083      3085      3088      3082      3081      3083      3084
      3082      3081      3083      3085      3083      3085      3088      3089
      3083      3085      3088      3090      3083      3085      3088      3091
      3084      3083      3085      3086      3084      3083      3085      3087
      3084      3083      3085      3088      3085      3088      3091      3092
      3085      3088      3091      3093      3085      3088      3091      3094
      3086      3085      3088      3089      3086      3085      3088      3090
      3086      3085      3088      3091      3087      3085      3088      3089
      3087      3085      3088      3090      3087      3085      3088      3091
      3088      3091      3094      3095      3088      3091      3094      3096
      3088      3091      3094      3097      3089      3088      3091      3092
      3089      3088      3091      3093      3089      3088      3091      3094
      3090      3088      3091      3092      3090      3088      3091      3093
      3090      3088      3091      3094      3091      3094      3097      3098
      3091      3094      3097      3099      3091      3094      3097      3100
      3092      3091      3094      3095      3092      3091      3094      3096
      3092      3091      3094      3097      3093      3091      3094      3095
      3093      3091      3094      3096      3093      3091      3094      3097
      3094      3097      3100      3101      3094      3097      3100      3102
      3094      3097      3100      3103      3095      3094      3097      3098
      3095      3094      3097      3099      3095      3094      3097      3100
      3096      3094      3097      3098      3096      3094      3097      3099
      3096      3094      3097      3100      3097      3100      3103      3104
      3097      3100      3103      3105      3097      3100      3103      3106
      3098      3097      3100      3101      3098      3097      3100      3102
      3098      3097      3100      3103      3099      3097      3100      3101
      3099      3097      3100      3102      3099      3097      3100      3103
      3100      3103      3106      3107      3100      3103      3106      3108
      3100      3103      3106      3109      3101      3100      3103      3104
      3101      3100      3103      3105      3101      3100      3103      3106
      3102      3100      3103      3104      3102      3100      3103      3105
      3102      3100      3103      3106      3104      3103      3106      3107
      3104      3103      3106      3108      3104      3103      3106      3109
      3105      3103      3106      3107      3105      3103      3106      3108
      3105      3103      3106      3109      3110      3114      3117      3118
      3110      3114      3117      3119      3110      3114      3117      3123
      3111      3110      3114      3115      3111      3110      3114      3116
      3111      3110      3114      3117      3112      3110      3114      3115
      3112      3110      3114      3116      3112      3110      3114      3117
      3113      3110      3114      3115      3113      3110      3114      3116
      3113      3110      3114      3117      3114      3117      3123      3120
      3115      3114      3117      3118      3115      3114      3117      3119
      3115      3114      3117      3123      3116      3114      3117      3118
      3116      3114      3117      3119      3116      3114      3117      3123
      3117      3123      3120      3121      3117      3123      3120      3122
      3117      3123      3120      3124      3118      3117      3123      3120
      3119      3117      3123      3120      3120      3124      3125      3126
      3120      3124      3125      3127      3120      3124      3125      3128
      3121      3120      3124      3125      3122      3120      3124      3125
      3123      3120      3124      3125      3124      3125      3128      3129
      3124      3125      3128      3130      3124      3125      3128      3136
      3125      3128      3130      3131      3125      3128      3136      3137
      3125      3128      3136      3138      3125      3128      3136      3139
      3126      3125      3128      3129      3126      3125      3128      3130
      3126      3125      3128      3136      3127      3125      3128      3129
      3127      3125      3128      3130      3127      3125      3128      3136
      3128      3130      3131      3132      3128      3130      3131      3133
      3128      3136      3139      3140      3129      3128      3130      3131
      3129      3128      3136      3137      3129      3128      3136      3138
      3129      3128      3136      3139      3130      3128      3136      3137
      3130      3128      3136      3138      3130      3128      3136      3139
      3130      3131      3133      3134      3130      3131      3133      3135
      3130      3131      3133      3145      3131      3130      3128      3136
      3131      3133      3145      3146      3131      3133      3145      3147
      3131      3133      3145      3148      3132      3131      3133      3134
      3132      3131      3133      3135      3132      3131      3133      3145
      3133      3145      3148      3149      3133      3145      3148      3150
      3133      3145      3148      3151      3134      3133      3145      3146
      3134      3133      3145      3147      3134      3133      3145      3148
      3135      3133      3145      3146      3135      3133      3145      3147
      3135      3133      3145      3148      3136      3139      3140      3141
      3136      3139      3140      3142      3137      3136      3139      3140
      3138      3136      3139      3140      3139      3140      3142      3143
      3139      3140      3142      3144      3139      3140      3142      3192
      3140      3142      3192      3193      3140      3142      3192      3194
      3140      3142      3192      3195      3141      3140      3142      3143
      3141      3140      3142      3144      3141      3140      3142      3192
      3142      3192      3195      3196      3142      3192      3195      3197
      3142      3192      3195      3198      3143      3142      3192      3193
      3143      3142      3192      3194      3143      3142      3192      3195
      3144      3142      3192      3193      3144      3142      3192      3194
      3144      3142      3192      3195      3145      3148      3151      3152
      3145      3148      3151      3153      3145      3148      3151      3154
      3146      3145      3148      3149      3146      3145      3148      3150
      3146      3145      3148      3151      3147      3145      3148      3149
      3147      3145      3148      3150      3147      3145      3148      3151
      3148      3151      3154      3155      3148      3151      3154      3156
      3148      3151      3154      3157      3149      3148      3151      3152
      3149      3148      3151      3153      3149      3148      3151      3154
      3150      3148      3151      3152      3150      3148      3151      3153
      3150      3148      3151      3154      3151      3154      3157      3158
      3151      3154      3157      3159      3151      3154      3157      3160
      3152      3151      3154      3155      3152      3151      3154      3156
      3152      3151      3154      3157      3153      3151      3154      3155
      3153      3151      3154      3156      3153      3151      3154      3157
      3154      3157      3160      3161      3154      3157      3160      3162
      3154      3157      3160      3163      3155      3154      3157      3158
      3155      3154      3157      3159      3155      3154      3157      3160
      3156      3154      3157      3158      3156      3154      3157      3159
      3156      3154      3157      3160      3157      3160      3163      3164
      3157      3160      3163      3165      3158      3157      3160      3161
      3158      3157      3160      3162      3158      3157      3160      3163
      3159      3157      3160      3161      3159      3157      3160      3162
      3159      3157      3160      3163      3160      3163      3165      3166
      3160      3163      3165      3167      3161      3160      3163      3164
      3161      3160      3163      3165      3162      3160      3163      3164
      3162      3160      3163      3165      3163      3165      3167      3168
      3163      3165      3167      3169      3163      3165      3167      3170
      3164      3163      3165      3166      3164      3163      3165      3167
      3165      3167      3170      3171      3165      3167      3170      3172
      3165      3167      3170      3173      3166      3165      3167      3168
      3166      3165      3167      3169      3166      3165      3167      3170
      3167      3170      3173      3174      3167      3170      3173      3175
      3167      3170      3173      3176      3168      3167      3170      3171
      3168      3167      3170      3172      3168      3167      3170      3173
      3169      3167      3170      3171      3169      3167      3170      3172
      3169      3167      3170      3173      3170      3173      3176      3177
      3170      3173      3176      3178      3170      3173      3176      3179
      3171      3170      3173      3174      3171      3170      3173      3175
      3171      3170      3173      3176      3172      3170      3173      3174
      3172      3170      3173      3175      3172      3170      3173      3176
      3173      3176      3179      3180      3173      3176      3179      3181
      3173      3176      3179      3182      3174      3173      3176      3177
      3174      3173      3176      3178      3174      3173      3176      3179
      3175      3173      3176      3177      3175      3173      3176      3178
      3175      3173      3176      3179      3176      3179      3182      3183
      3176      3179      3182      3184      3176      3179      3182      3185
      3177      3176      3179      3180      3177      3176      3179      3181
      3177      3176      3179      3182      3178      3176      3179      3180
      3178      3176      3179      3181      3178      3176      3179      3182
      3179      3182      3185      3186      3179      3182      3185      3187
      3179      3182      3185      3188      3180      3179      3182      3183
      3180      3179      3182      3184      3180      3179      3182      3185
      3181      3179      3182      3183      3181      3179      3182      3184
      3181      3179      3182      3185      3182      3185      3188      3189
      3182      3185      3188      3190      3182      3185      3188      3191
      3183      3182      3185      3186      3183      3182      3185      3187
      3183      3182      3185      3188      3184      3182      3185      3186
      3184      3182      3185      3187      3184      3182      3185      3188
      3186      3185      3188      3189      3186      3185      3188      3190
      3186      3185      3188      3191      3187      3185      3188      3189
      3187      3185      3188      3190      3187      3185      3188      3191
      3192      3195      3198      3199      3192      3195      3198      3200
      3192      3195      3198      3201      3193      3192      3195      3196
      3193      3192      3195      3197      3193      3192      3195      3198
      3194      3192      3195      3196      3194      3192      3195      3197
      3194      3192      3195      3198      3195      3198      3201      3202
      3195      3198      3201      3203      3195      3198      3201      3204
      3196      3195      3198      3199      3196      3195      3198      3200
      3196      3195      3198      3201      3197      3195      3198      3199
      3197      3195      3198      3200      3197      3195      3198      3201
      3198      3201      3204      3205      3198      3201      3204      3206
      3198      3201      3204      3207      3199      3198      3201      3202
      3199      3198      3201      3203      3199      3198      3201      3204
      3200      3198      3201      3202      3200      3198      3201      3203
      3200      3198      3201      3204      3201      3204      3207      3208
      3201      3204      3207      3209      3201      3204      3207      3210
      3202      3201      3204      3205      3202      3201      3204      3206
      3202      3201      3204      3207      3203      3201      3204      3205
      3203      3201      3204      3206      3203      3201      3204      3207
      3204      3207      3210      3211      3204      3207      3210      3212
      3204      3207      3210      3213      3205      3204      3207      3208
      3205      3204      3207      3209      3205      3204      3207      3210
      3206      3204      3207      3208      3206      3204      3207      3209
      3206      3204      3207      3210      3207      3210      3213      3214
      3207      3210      3213      3215      3207      3210      3213      3216
      3208      3207      3210      3211      3208      3207      3210      3212
      3208      3207      3210      3213      3209      3207      3210      3211
      3209      3207      3210      3212      3209      3207      3210      3213
      3210      3213      3216      3217      3210      3213      3216      3218
      3210      3213      3216      3219      3211      3210      3213      3214
      3211      3210      3213      3215      3211      3210      3213      3216
      3212      3210      3213      3214      3212      3210      3213      3215
      3212      3210      3213      3216      3213      3216      3219      3220
      3213      3216      3219      3221      3213      3216      3219      3222
      3214      3213      3216      3217      3214      3213      3216      3218
      3214      3213      3216      3219      3215      3213      3216      3217
      3215      3213      3216      3218      3215      3213      3216      3219
      3216      3219      3222      3223      3216      3219      3222      3224
      3216      3219      3222      3225      3217      3216      3219      3220
      3217      3216      3219      3221      3217      3216      3219      3222
      3218      3216      3219      3220      3218      3216      3219      3221
      3218      3216      3219      3222      3219      3222      3225      3226
      3219      3222      3225      3227      3219      3222      3225      3228
      3220      3219      3222      3223      3220      3219      3222      3224
      3220      3219      3222      3225      3221      3219      3222      3223
      3221      3219      3222      3224      3221      3219      3222      3225
      3222      3225      3228      3229      3222      3225      3228      3230
      3222      3225      3228      3231      3223      3222      3225      3226
      3223      3222      3225      3227      3223      3222      3225      3228
      3224      3222      3225      3226      3224      3222      3225      3227
      3224      3222      3225      3228      3225      3228      3231      3232
      3225      3228      3231      3233      3225      3228      3231      3234
      3226      3225      3228      3229      3226      3225      3228      3230
      3226      3225      3228      3231      3227      3225      3228      3229
      3227      3225      3228      3230      3227      3225      3228      3231
      3228      3231      3234      3235      3228      3231      3234      3236
      3228      3231      3234      3237      3229      3228      3231      3232
      3229      3228      3231      3233      3229      3228      3231      3234
      3230      3228      3231      3232      3230      3228      3231      3233
      3230      3228      3231      3234      3231      3234      3237      3238
      3231      3234      3237      3239      3231      3234      3237      3240
      3232      3231      3234      3235      3232      3231      3234      3236
      3232      3231      3234      3237      3233      3231      3234      3235
      3233      3231      3234      3236      3233      3231      3234      3237
      3235      3234      3237      3238      3235      3234      3237      3239
      3235      3234      3237      3240      3236      3234      3237      3238
      3236      3234      3237      3239      3236      3234      3237      3240
      3241      3254      3257      3258      3241      3254      3257      3259
      3241      3254      3257      3264      3242      3241      3246      3247
      3242      3241      3246      3248      3242      3241      3246      3249
      3242      3241      3250      3251      3242      3241      3250      3252
      3242      3241      3250      3253      3242      3241      3254      3255
      3242      3241      3254      3256      3242      3241      3254      3257
      3243      3242      3241      3246      3243      3242      3241      3250
      3243      3242      3241      3254      3244      3242      3241      3246
      3244      3242      3241      3250      3244      3242      3241      3254
      3245      3242      3241      3246      3245      3242      3241      3250
      3245      3242      3241      3254      3246      3241      3250      3251
      3246      3241      3250      3252      3246      3241      3250      3253
      3246      3241      3254      3255      3246      3241      3254      3256
      3246      3241      3254      3257      3247      3246      3241      3250
      3247      3246      3241      3254      3248      3246      3241      3250
      3248      3246      3241      3254      3249      3246      3241      3250
      3249      3246      3241      3254      3250      3241      3254      3255
      3250      3241      3254      3256      3250      3241      3254      3257
      3251      3250      3241      3254      3252      3250      3241      3254
      3253      3250      3241      3254      3254      3257      3264      3260
      3255      3254      3257      3258      3255      3254      3257      3259
      3255      3254      3257      3264      3256      3254      3257      3258
      3256      3254      3257      3259      3256      3254      3257      3264
      3257      3264      3260      3261      3257      3264      3260      3262
      3257      3264      3260      3263      3258      3257      3264      3260
      3259      3257      3264      3260      3260      3263      3265      3266
      3260      3263      3265      3267      3260      3263      3265      3270
      3261      3260      3263      3265      3262      3260      3263      3265
      3263      3265      3270      3268      3263      3265      3270      3271
      3263      3265      3270      3272      3264      3260      3263      3265
      3265      3270      3268      3269      3265      3270      3268      3320
      3265      3270      3272      3273      3265      3270      3272      3274
      3265      3270      3272      3276      3266      3265      3270      3268
      3266      3265      3270      3271      3266      3265      3270      3272
      3267      3265      3270      3268      3267      3265      3270      3271
      3267      3265      3270      3272      3268      3270      3272      3273
      3268      3270      3272      3274      3268      3270      3272      3276
      3268      3320      3322      3323      3268      3320      3322      3324
      3268      3320      3322      3325      3269      3268      3270      3271
      3269      3268      3270      3272      3269      3268      3320      3321
      3269      3268      3320      3322      3270      3268      3320      3321
      3270      3268      3320      3322      3270      3272      3274      3275
      3270      3272      3276      3277      3270      3272      3276      3278
      3271      3270      3268      3320      3271      3270      3272      3273
      3271      3270      3272      3274      3271      3270      3272      3276
      3272      3270      3268      3320      3272      3276      3278      3279
      3272      3276      3278      3280      3273      3272      3274      3275
      3273      3272      3276      3277      3273      3272      3276      3278
      3274      3272      3276      3277      3274      3272      3276      3278
      3275      3274      3272      3276      3276      3278      3280      3281
      3276      3278      3280      3282      3276      3278      3280      3283
      3277      3276      3278      3279      3277      3276      3278      3280
      3278      3280      3283      3284      3278      3280      3283      3285
      3278      3280      3283      3286      3279      3278      3280      3281
      3279      3278      3280      3282      3279      3278      3280      3283
      3280      3283      3286      3287      3280      3283      3286      3288
      3280      3283      3286      3289      3281      3280      3283      3284
      3281      3280      3283      3285      3281      3280      3283      3286
      3282      3280      3283      3284      3282      3280      3283      3285
      3282      3280      3283      3286      3283      3286      3289      3290
      3283      3286      3289      3291      3283      3286      3289      3292
      3284      3283      3286      3287      3284      3283      3286      3288
      3284      3283      3286      3289      3285      3283      3286      3287
      3285      3283      3286      3288      3285      3283      3286      3289
      3286      3289      3292      3293      3286      3289      3292      3294
      3286      3289      3292      3295      3287      3286      3289      3290
      3287      3286      3289      3291      3287      3286      3289      3292
      3288      3286      3289      3290      3288      3286      3289      3291
      3288      3286      3289      3292      3289      3292      3295      3296
      3289      3292      3295      3297      3289      3292      3295      3298
      3290      3289      3292      3293      3290      3289      3292      3294
      3290      3289      3292      3295      3291      3289      3292      3293
      3291      3289      3292      3294      3291      3289      3292      3295
      3292      3295      3298      3299      3292      3295      3298      3300
      3292      3295      3298      3301      3293      3292      3295      3296
      3293      3292      3295      3297      3293      3292      3295      3298
      3294      3292      3295      3296      3294      3292      3295      3297
      3294      3292      3295      3298      3295      3298      3301      3302
      3295      3298      3301      3303      3295      3298      3301      3304
      3296      3295      3298      3299      3296      3295      3298      3300
      3296      3295      3298      3301      3297      3295      3298      3299
      3297      3295      3298      3300      3297      3295      3298      3301
      3298      3301      3304      3305      3298      3301      3304      3306
      3298      3301      3304      3307      3299      3298      3301      3302
      3299      3298      3301      3303      3299      3298      3301      3304
      3300      3298      3301      3302      3300      3298      3301      3303
      3300      3298      3301      3304      3301      3304      3307      3308
      3301      3304      3307      3309      3301      3304      3307      3310
      3302      3301      3304      3305      3302      3301      3304      3306
      3302      3301      3304      3307      3303      3301      3304      3305
      3303      3301      3304      3306      3303      3301      3304      3307
      3304      3307      3310      3311      3304      3307      3310      3312
      3304      3307      3310      3313      3305      3304      3307      3308
      3305      3304      3307      3309      3305      3304      3307      3310
      3306      3304      3307      3308      3306      3304      3307      3309
      3306      3304      3307      3310      3307      3310      3313      3314
      3307      3310      3313      3315      3307      3310      3313      3316
      3308      3307      3310      3311      3308      3307      3310      3312
      3308      3307      3310      3313      3309      3307      3310      3311
      3309      3307      3310      3312      3309      3307      3310      3313
      3310      3313      3316      3317      3310      3313      3316      3318
      3310      3313      3316      3319      3311      3310      3313      3314
      3311      3310      3313      3315      3311      3310      3313      3316
      3312      3310      3313      3314      3312      3310      3313      3315
      3312      3310      3313      3316      3314      3313      3316      3317
      3314      3313      3316      3318      3314      3313      3316      3319
      3315      3313      3316      3317      3315      3313      3316      3318
      3315      3313      3316      3319      3320      3322      3325      3326
      3320      3322      3325      3327      3320      3322      3325      3328
      3321      3320      3322      3323      3321      3320      3322      3324
      3321      3320      3322      3325      3322      3325      3328      3329
      3322      3325      3328      3330      3322      3325      3328      3331
      3323      3322      3325      3326      3323      3322      3325      3327
      3323      3322      3325      3328      3324      3322      3325      3326
      3324      3322      3325      3327      3324      3322      3325      3328
      3325      3328      3331      3332      3325      3328      3331      3333
      3325      3328      3331      3334      3326      3325      3328      3329
      3326      3325      3328      3330      3326      3325      3328      3331
      3327      3325      3328      3329      3327      3325      3328      3330
      3327      3325      3328      3331      3328      3331      3334      3335
      3328      3331      3334      3336      3328      3331      3334      3337
      3329      3328      3331      3332      3329      3328      3331      3333
      3329      3328      3331      3334      3330      3328      3331      3332
      3330      3328      3331      3333      3330      3328      3331      3334
      3331      3334      3337      3338      3331      3334      3337      3339
      3331      3334      3337      3340      3332      3331      3334      3335
      3332      3331      3334      3336      3332      3331      3334      3337
      3333      3331      3334      3335      3333      3331      3334      3336
      3333      3331      3334      3337      3334      3337      3340      3341
      3334      3337      3340      3342      3334      3337      3340      3343
      3335      3334      3337      3338      3335      3334      3337      3339
      3335      3334      3337      3340      3336      3334      3337      3338
      3336      3334      3337      3339      3336      3334      3337      3340
      3337      3340      3343      3344      3337      3340      3343      3345
      3338      3337      3340      3341      3338      3337      3340      3342
      3338      3337      3340      3343      3339      3337      3340      3341
      3339      3337      3340      3342      3339      3337      3340      3343
      3340      3343      3345      3346      3340      3343      3345      3347
      3341      3340      3343      3344      3341      3340      3343      3345
      3342      3340      3343      3344      3342      3340      3343      3345
      3343      3345      3347      3348      3343      3345      3347      3349
      3343      3345      3347      3350      3344      3343      3345      3346
      3344      3343      3345      3347      3345      3347      3350      3351
      3345      3347      3350      3352      3345      3347      3350      3353
      3346      3345      3347      3348      3346      3345      3347      3349
      3346      3345      3347      3350      3347      3350      3353      3354
      3347      3350      3353      3355      3347      3350      3353      3356
      3348      3347      3350      3351      3348      3347      3350      3352
      3348      3347      3350      3353      3349      3347      3350      3351
      3349      3347      3350      3352      3349      3347      3350      3353
      3350      3353      3356      3357      3350      3353      3356      3358
      3350      3353      3356      3359      3351      3350      3353      3354
      3351      3350      3353      3355      3351      3350      3353      3356
      3352      3350      3353      3354      3352      3350      3353      3355
      3352      3350      3353      3356      3353      3356      3359      3360
      3353      3356      3359      3361      3353      3356      3359      3362
      3354      3353      3356      3357      3354      3353      3356      3358
      3354      3353      3356      3359      3355      3353      3356      3357
      3355      3353      3356      3358      3355      3353      3356      3359
      3356      3359      3362      3363      3356      3359      3362      3364
      3356      3359      3362      3365      3357      3356      3359      3360
      3357      3356      3359      3361      3357      3356      3359      3362
      3358      3356      3359      3360      3358      3356      3359      3361
      3358      3356      3359      3362      3359      3362      3365      3366
      3359      3362      3365      3367      3359      3362      3365      3368
      3360      3359      3362      3363      3360      3359      3362      3364
      3360      3359      3362      3365      3361      3359      3362      3363
      3361      3359      3362      3364      3361      3359      3362      3365
      3362      3365      3368      3369      3362      3365      3368      3370
      3362      3365      3368      3371      3363      3362      3365      3366
      3363      3362      3365      3367      3363      3362      3365      3368
      3364      3362      3365      3366      3364      3362      3365      3367
      3364      3362      3365      3368      3366      3365      3368      3369
      3366      3365      3368      3370      3366      3365      3368      3371
      3367      3365      3368      3369      3367      3365      3368      3370
      3367      3365      3368      3371      3372      3385      3388      3389
      3372      3385      3388      3390      3372      3385      3388      3395
      3373      3372      3377      3378      3373      3372      3377      3379
      3373      3372      3377      3380      3373      3372      3381      3382
      3373      3372      3381      3383      3373      3372      3381      3384
      3373      3372      3385      3386      3373      3372      3385      3387
      3373      3372      3385      3388      3374      3373      3372      3377
      3374      3373      3372      3381      3374      3373      3372      3385
      3375      3373      3372      3377      3375      3373      3372      3381
      3375      3373      3372      3385      3376      3373      3372      3377
      3376      3373      3372      3381      3376      3373      3372      3385
      3377      3372      3381      3382      3377      3372      3381      3383
      3377      3372      3381      3384      3377      3372      3385      3386
      3377      3372      3385      3387      3377      3372      3385      3388
      3378      3377      3372      3381      3378      3377      3372      3385
      3379      3377      3372      3381      3379      3377      3372      3385
      3380      3377      3372      3381      3380      3377      3372      3385
      3381      3372      3385      3386      3381      3372      3385      3387
      3381      3372      3385      3388      3382      3381      3372      3385
      3383      3381      3372      3385      3384      3381      3372      3385
      3385      3388      3395      3391      3386      3385      3388      3389
      3386      3385      3388      3390      3386      3385      3388      3395
      3387      3385      3388      3389      3387      3385      3388      3390
      3387      3385      3388      3395      3388      3395      3391      3392
      3388      3395      3391      3393      3388      3395      3391      3394
      3389      3388      3395      3391      3390      3388      3395      3391
      3391      3394      3396      3397      3391      3394      3396      3398
      3391      3394      3396      3401      3392      3391      3394      3396
      3393      3391      3394      3396      3394      3396      3401      3399
      3394      3396      3401      3402      3394      3396      3401      3403
      3395      3391      3394      3396      3396      3401      3399      3400
      3396      3401      3399      3451      3396      3401      3403      3404
      3396      3401      3403      3405      3396      3401      3403      3407
      3397      3396      3401      3399      3397      3396      3401      3402
      3397      3396      3401      3403      3398      3396      3401      3399
      3398      3396      3401      3402      3398      3396      3401      3403
      3399      3401      3403      3404      3399      3401      3403      3405
      3399      3401      3403      3407      3399      3451      3453      3454
      3399      3451      3453      3455      3399      3451      3453      3456
      3400      3399      3401      3402      3400      3399      3401      3403
      3400      3399      3451      3452      3400      3399      3451      3453
      3401      3399      3451      3452      3401      3399      3451      3453
      3401      3403      3405      3406      3401      3403      3407      3408
      3401      3403      3407      3409      3402      3401      3399      3451
      3402      3401      3403      3404      3402      3401      3403      3405
      3402      3401      3403      3407      3403      3401      3399      3451
      3403      3407      3409      3410      3403      3407      3409      3411
      3404      3403      3405      3406      3404      3403      3407      3408
      3404      3403      3407      3409      3405      3403      3407      3408
      3405      3403      3407      3409      3406      3405      3403      3407
      3407      3409      3411      3412      3407      3409      3411      3413
      3407      3409      3411      3414      3408      3407      3409      3410
      3408      3407      3409      3411      3409      3411      3414      3415
      3409      3411      3414      3416      3409      3411      3414      3417
      3410      3409      3411      3412      3410      3409      3411      3413
      3410      3409      3411      3414      3411      3414      3417      3418
      3411      3414      3417      3419      3411      3414      3417      3420
      3412      3411      3414      3415      3412      3411      3414      3416
      3412      3411      3414      3417      3413      3411      3414      3415
      3413      3411      3414      3416      3413      3411      3414      3417
      3414      3417      3420      3421      3414      3417      3420      3422
      3414      3417      3420      3423      3415      3414      3417      3418
      3415      3414      3417      3419      3415      3414      3417      3420
      3416      3414      3417      3418      3416      3414      3417      3419
      3416      3414      3417      3420      3417      3420      3423      3424
      3417      3420      3423      3425      3417      3420      3423      3426
      3418      3417      3420      3421      3418      3417      3420      3422
      3418      3417      3420      3423      3419      3417      3420      3421
      3419      3417      3420      3422      3419      3417      3420      3423
      3420      3423      3426      3427      3420      3423      3426      3428
      3420      3423      3426      3429      3421      3420      3423      3424
      3421      3420      3423      3425      3421      3420      3423      3426
      3422      3420      3423      3424      3422      3420      3423      3425
      3422      3420      3423      3426      3423      3426      3429      3430
      3423      3426      3429      3431      3423      3426      3429      3432
      3424      3423      3426      3427      3424      3423      3426      3428
      3424      3423      3426      3429      3425      3423      3426      3427
      3425      3423      3426      3428      3425      3423      3426      3429
      3426      3429      3432      3433      3426      3429      3432      3434
      3426      3429      3432      3435      3427      3426      3429      3430
      3427      3426      3429      3431      3427      3426      3429      3432
      3428      3426      3429      3430      3428      3426      3429      3431
      3428      3426      3429      3432      3429      3432      3435      3436
      3429      3432      3435      3437      3429      3432      3435      3438
      3430      3429      3432      3433      3430      3429      3432      3434
      3430      3429      3432      3435      3431      3429      3432      3433
      3431      3429      3432      3434      3431      3429      3432      3435
      3432      3435      3438      3439      3432      3435      3438      3440
      3432      3435      3438      3441      3433      3432      3435      3436
      3433      3432      3435      3437      3433      3432      3435      3438
      3434      3432      3435      3436      3434      3432      3435      3437
      3434      3432      3435      3438      3435      3438      3441      3442
      3435      3438      3441      3443      3435      3438      3441      3444
      3436      3435      3438      3439      3436      3435      3438      3440
      3436      3435      3438      3441      3437      3435      3438      3439
      3437      3435      3438      3440      3437      3435      3438      3441
      3438      3441      3444      3445      3438      3441      3444      3446
      3438      3441      3444      3447      3439      3438      3441      3442
      3439      3438      3441      3443      3439      3438      3441      3444
      3440      3438      3441      3442      3440      3438      3441      3443
      3440      3438      3441      3444      3441      3444      3447      3448
      3441      3444      3447      3449      3441      3444      3447      3450
      3442      3441      3444      3445      3442      3441      3444      3446
      3442      3441      3444      3447      3443      3441      3444      3445
      3443      3441      3444      3446      3443      3441      3444      3447
      3445      3444      3447      3448      3445      3444      3447      3449
      3445      3444      3447      3450      3446      3444      3447      3448
      3446      3444      3447      3449      3446      3444      3447      3450
      3451      3453      3456      3457      3451      3453      3456      3458
      3451      3453      3456      3459      3452      3451      3453      3454
      3452      3451      3453      3455      3452      3451      3453      3456
      3453      3456      3459      3460      3453      3456      3459      3461
      3453      3456      3459      3462      3454      3453      3456      3457
      3454      3453      3456      3458      3454      3453      3456      3459
      3455      3453      3456      3457      3455      3453      3456      3458
      3455      3453      3456      3459      3456      3459      3462      3463
      3456      3459      3462      3464      3456      3459      3462      3465
      3457      3456      3459      3460      3457      3456      3459      3461
      3457      3456      3459      3462      3458      3456      3459      3460
      3458      3456      3459      3461      3458      3456      3459      3462
      3459      3462      3465      3466      3459      3462      3465      3467
      3459      3462      3465      3468      3460      3459      3462      3463
      3460      3459      3462      3464      3460      3459      3462      3465
      3461      3459      3462      3463      3461      3459      3462      3464
      3461      3459      3462      3465      3462      3465      3468      3469
      3462      3465      3468      3470      3462      3465      3468      3471
      3463      3462      3465      3466      3463      3462      3465      3467
      3463      3462      3465      3468      3464      3462      3465      3466
      3464      3462      3465      3467      3464      3462      3465      3468
      3465      3468      3471      3472      3465      3468      3471      3473
      3465      3468      3471      3474      3466      3465      3468      3469
      3466      3465      3468      3470      3466      3465      3468      3471
      3467      3465      3468      3469      3467      3465      3468      3470
      3467      3465      3468      3471      3468      3471      3474      3475
      3468      3471      3474      3476      3469      3468      3471      3472
      3469      3468      3471      3473      3469      3468      3471      3474
      3470      3468      3471      3472      3470      3468      3471      3473
      3470      3468      3471      3474      3471      3474      3476      3477
      3471      3474      3476      3478      3472      3471      3474      3475
      3472      3471      3474      3476      3473      3471      3474      3475
      3473      3471      3474      3476      3474      3476      3478      3479
      3474      3476      3478      3480      3474      3476      3478      3481
      3475      3474      3476      3477      3475      3474      3476      3478
      3476      3478      3481      3482      3476      3478      3481      3483
      3476      3478      3481      3484      3477      3476      3478      3479
      3477      3476      3478      3480      3477      3476      3478      3481
      3478      3481      3484      3485      3478      3481      3484      3486
      3478      3481      3484      3487      3479      3478      3481      3482
      3479      3478      3481      3483      3479      3478      3481      3484
      3480      3478      3481      3482      3480      3478      3481      3483
      3480      3478      3481      3484      3481      3484      3487      3488
      3481      3484      3487      3489      3481      3484      3487      3490
      3482      3481      3484      3485      3482      3481      3484      3486
      3482      3481      3484      3487      3483      3481      3484      3485
      3483      3481      3484      3486      3483      3481      3484      3487
      3484      3487      3490      3491      3484      3487      3490      3492
      3484      3487      3490      3493      3485      3484      3487      3488
      3485      3484      3487      3489      3485      3484      3487      3490
      3486      3484      3487      3488      3486      3484      3487      3489
      3486      3484      3487      3490      3487      3490      3493      3494
      3487      3490      3493      3495      3487      3490      3493      3496
      3488      3487      3490      3491      3488      3487      3490      3492
      3488      3487      3490      3493      3489      3487      3490      3491
      3489      3487      3490      3492      3489      3487      3490      3493
      3490      3493      3496      3497      3490      3493      3496      3498
      3490      3493      3496      3499      3491      3490      3493      3494
      3491      3490      3493      3495      3491      3490      3493      3496
      3492      3490      3493      3494      3492      3490      3493      3495
      3492      3490      3493      3496      3493      3496      3499      3500
      3493      3496      3499      3501      3493      3496      3499      3502
      3494      3493      3496      3497      3494      3493      3496      3498
      3494      3493      3496      3499      3495      3493      3496      3497
      3495      3493      3496      3498      3495      3493      3496      3499
      3497      3496      3499      3500      3497      3496      3499      3501
      3497      3496      3499      3502      3498      3496      3499      3500
      3498      3496      3499      3501      3498      3496      3499      3502
      3503      3507      3510      3511      3503      3507      3510      3512
      3503      3507      3510      3516      3504      3503      3507      3508
      3504      3503      3507      3509      3504      3503      3507      3510
      3505      3503      3507      3508      3505      3503      3507      3509
      3505      3503      3507      3510      3506      3503      3507      3508
      3506      3503      3507      3509      3506      3503      3507      3510
      3507      3510      3516      3513      3508      3507      3510      3511
      3508      3507      3510      3512      3508      3507      3510      3516
      3509      3507      3510      3511      3509      3507      3510      3512
      3509      3507      3510      3516      3510      3516      3513      3514
      3510      3516      3513      3515      3510      3516      3513      3517
      3511      3510      3516      3513      3512      3510      3516      3513
      3513      3517      3518      3519      3513      3517      3518      3520
      3513      3517      3518      3521      3514      3513      3517      3518
      3515      3513      3517      3518      3516      3513      3517      3518
      3517      3518      3521      3522      3517      3518      3521      3523
      3517      3518      3521      3529      3518      3521      3523      3524
      3518      3521      3529      3530      3518      3521      3529      3531
      3518      3521      3529      3532      3519      3518      3521      3522
      3519      3518      3521      3523      3519      3518      3521      3529
      3520      3518      3521      3522      3520      3518      3521      3523
      3520      3518      3521      3529      3521      3523      3524      3525
      3521      3523      3524      3526      3521      3529      3532      3533
      3522      3521      3523      3524      3522      3521      3529      3530
      3522      3521      3529      3531      3522      3521      3529      3532
      3523      3521      3529      3530      3523      3521      3529      3531
      3523      3521      3529      3532      3523      3524      3526      3527
      3523      3524      3526      3528      3523      3524      3526      3538
      3524      3523      3521      3529      3524      3526      3538      3539
      3524      3526      3538      3540      3524      3526      3538      3541
      3525      3524      3526      3527      3525      3524      3526      3528
      3525      3524      3526      3538      3526      3538      3541      3542
      3526      3538      3541      3543      3526      3538      3541      3544
      3527      3526      3538      3539      3527      3526      3538      3540
      3527      3526      3538      3541      3528      3526      3538      3539
      3528      3526      3538      3540      3528      3526      3538      3541
      3529      3532      3533      3534      3529      3532      3533      3535
      3530      3529      3532      3533      3531      3529      3532      3533
      3532      3533      3535      3536      3532      3533      3535      3537
      3532      3533      3535      3585      3533      3535      3585      3586
      3533      3535      3585      3587      3533      3535      3585      3588
      3534      3533      3535      3536      3534      3533      3535      3537
      3534      3533      3535      3585      3535      3585      3588      3589
      3535      3585      3588      3590      3535      3585      3588      3591
      3536      3535      3585      3586      3536      3535      3585      3587
      3536      3535      3585      3588      3537      3535      3585      3586
      3537      3535      3585      3587      3537      3535      3585      3588
      3538      3541      3544      3545      3538      3541      3544      3546
      3538      3541      3544      3547      3539      3538      3541      3542
      3539      3538      3541      3543      3539      3538      3541      3544
      3540      3538      3541      3542      3540      3538      3541      3543
      3540      3538      3541      3544      3541      3544      3547      3548
      3541      3544      3547      3549      3541      3544      3547      3550
      3542      3541      3544      3545      3542      3541      3544      3546
      3542      3541      3544      3547      3543      3541      3544      3545
      3543      3541      3544      3546      3543      3541      3544      3547
      3544      3547      3550      3551      3544      3547      3550      3552
      3544      3547      3550      3553      3545      3544      3547      3548
      3545      3544      3547      3549      3545      3544      3547      3550
      3546      3544      3547      3548      3546      3544      3547      3549
      3546      3544      3547      3550      3547      3550      3553      3554
      3547      3550      3553      3555      3547      3550      3553      3556
      3548      3547      3550      3551      3548      3547      3550      3552
      3548      3547      3550      3553      3549      3547      3550      3551
      3549      3547      3550      3552      3549      3547      3550      3553
      3550      3553      3556      3557      3550      3553      3556      3558
      3551      3550      3553      3554      3551      3550      3553      3555
      3551      3550      3553      3556      3552      3550      3553      3554
      3552      3550      3553      3555      3552      3550      3553      3556
      3553      3556      3558      3559      3553      3556      3558      3560
      3554      3553      3556      3557      3554      3553      3556      3558
      3555      3553      3556      3557      3555      3553      3556      3558
      3556      3558      3560      3561      3556      3558      3560      3562
      3556      3558      3560      3563      3557      3556      3558      3559
      3557      3556      3558      3560      3558      3560      3563      3564
      3558      3560      3563      3565      3558      3560      3563      3566
      3559      3558      3560      3561      3559      3558      3560      3562
      3559      3558      3560      3563      3560      3563      3566      3567
      3560      3563      3566      3568      3560      3563      3566      3569
      3561      3560      3563      3564      3561      3560      3563      3565
      3561      3560      3563      3566      3562      3560      3563      3564
      3562      3560      3563      3565      3562      3560      3563      3566
      3563      3566      3569      3570      3563      3566      3569      3571
      3563      3566      3569      3572      3564      3563      3566      3567
      3564      3563      3566      3568      3564      3563      3566      3569
      3565      3563      3566      3567      3565      3563      3566      3568
      3565      3563      3566      3569      3566      3569      3572      3573
      3566      3569      3572      3574      3566      3569      3572      3575
      3567      3566      3569      3570      3567      3566      3569      3571
      3567      3566      3569      3572      3568      3566      3569      3570
      3568      3566      3569      3571      3568      3566      3569      3572
      3569      3572      3575      3576      3569      3572      3575      3577
      3569      3572      3575      3578      3570      3569      3572      3573
      3570      3569      3572      3574      3570      3569      3572      3575
      3571      3569      3572      3573      3571      3569      3572      3574
      3571      3569      3572      3575      3572      3575      3578      3579
      3572      3575      3578      3580      3572      3575      3578      3581
      3573      3572      3575      3576      3573      3572      3575      3577
      3573      3572      3575      3578      3574      3572      3575      3576
      3574      3572      3575      3577      3574      3572      3575      3578
      3575      3578      3581      3582      3575      3578      3581      3583
      3575      3578      3581      3584      3576      3575      3578      3579
      3576      3575      3578      3580      3576      3575      3578      3581
      3577      3575      3578      3579      3577      3575      3578      3580
      3577      3575      3578      3581      3579      3578      3581      3582
      3579      3578      3581      3583      3579      3578      3581      3584
      3580      3578      3581      3582      3580      3578      3581      3583
      3580      3578      3581      3584      3585      3588      3591      3592
      3585      3588      3591      3593      3585      3588      3591      3594
      3586      3585      3588      3589      3586      3585      3588      3590
      3586      3585      3588      3591      3587      3585      3588      3589
      3587      3585      3588      3590      3587      3585      3588      3591
      3588      3591      3594      3595      3588      3591      3594      3596
      3588      3591      3594      3597      3589      3588      3591      3592
      3589      3588      3591      3593      3589      3588      3591      3594
      3590      3588      3591      3592      3590      3588      3591      3593
      3590      3588      3591      3594      3591      3594      3597      3598
      3591      3594      3597      3599      3591      3594      3597      3600
      3592      3591      3594      3595      3592      3591      3594      3596
      3592      3591      3594      3597      3593      3591      3594      3595
      3593      3591      3594      3596      3593      3591      3594      3597
      3594      3597      3600      3601      3594      3597      3600      3602
      3594      3597      3600      3603      3595      3594      3597      3598
      3595      3594      3597      3599      3595      3594      3597      3600
      3596      3594      3597      3598      3596      3594      3597      3599
      3596      3594      3597      3600      3597      3600      3603      3604
      3597      3600      3603      3605      3597      3600      3603      3606
      3598      3597      3600      3601      3598      3597      3600      3602
      3598      3597      3600      3603      3599      3597      3600      3601
      3599      3597      3600      3602      3599      3597      3600      3603
      3600      3603      3606      3607      3600      3603      3606      3608
      3600      3603      3606      3609      3601      3600      3603      3604
      3601      3600      3603      3605      3601      3600      3603      3606
      3602      3600      3603      3604      3602      3600      3603      3605
      3602      3600      3603      3606      3603      3606      3609      3610
      3603      3606      3609      3611      3603      3606      3609      3612
      3604      3603      3606      3607      3604      3603      3606      3608
      3604      3603      3606      3609      3605      3603      3606      3607
      3605      3603      3606      3608      3605      3603      3606      3609
      3606      3609      3612      3613      3606      3609      3612      3614
      3606      3609      3612      3615      3607      3606      3609      3610
      3607      3606      3609      3611      3607      3606      3609      3612
      3608      3606      3609      3610      3608      3606      3609      3611
      3608      3606      3609      3612      3609      3612      3615      3616
      3609      3612      3615      3617      3609      3612      3615      3618
      3610      3609      3612      3613      3610      3609      3612      3614
      3610      3609      3612      3615      3611      3609      3612      3613
      3611      3609      3612      3614      3611      3609      3612      3615
      3612      3615      3618      3619      3612      3615      3618      3620
      3612      3615      3618      3621      3613      3612      3615      3616
      3613      3612      3615      3617      3613      3612      3615      3618
      3614      3612      3615      3616      3614      3612      3615      3617
      3614      3612      3615      3618      3615      3618      3621      3622
      3615      3618      3621      3623      3615      3618      3621      3624
      3616      3615      3618      3619      3616      3615      3618      3620
      3616      3615      3618      3621      3617      3615      3618      3619
      3617      3615      3618      3620      3617      3615      3618      3621
      3618      3621      3624      3625      3618      3621      3624      3626
      3618      3621      3624      3627      3619      3618      3621      3622
      3619      3618      3621      3623      3619      3618      3621      3624
      3620      3618      3621      3622      3620      3618      3621      3623
      3620      3618      3621      3624      3621      3624      3627      3628
      3621      3624      3627      3629      3621      3624      3627      3630
      3622      3621      3624      3625      3622      3621      3624      3626
      3622      3621      3624      3627      3623      3621      3624      3625
      3623      3621      3624      3626      3623      3621      3624      3627
      3624      3627      3630      3631      3624      3627      3630      3632
      3624      3627      3630      3633      3625      3624      3627      3628
      3625      3624      3627      3629      3625      3624      3627      3630
      3626      3624      3627      3628      3626      3624      3627      3629
      3626      3624      3627      3630      3628      3627      3630      3631
      3628      3627      3630      3632      3628      3627      3630      3633
      3629      3627      3630      3631      3629      3627      3630      3632
      3629      3627      3630      3633      3634      3647      3650      3651
      3634      3647      3650      3652      3634      3647      3650      3657
      3635      3634      3639      3640      3635      3634      3639      3641
      3635      3634      3639      3642      3635      3634      3643      3644
      3635      3634      3643      3645      3635      3634      3643      3646
      3635      3634      3647      3648      3635      3634      3647      3649
      3635      3634      3647      3650      3636      3635      3634      3639
      3636      3635      3634      3643      3636      3635      3634      3647
      3637      3635      3634      3639      3637      3635      3634      3643
      3637      3635      3634      3647      3638      3635      3634      3639
      3638      3635      3634      3643      3638      3635      3634      3647
      3639      3634      3643      3644      3639      3634      3643      3645
      3639      3634      3643      3646      3639      3634      3647      3648
      3639      3634      3647      3649      3639      3634      3647      3650
      3640      3639      3634      3643      3640      3639      3634      3647
      3641      3639      3634      3643      3641      3639      3634      3647
      3642      3639      3634      3643      3642      3639      3634      3647
      3643      3634      3647      3648      3643      3634      3647      3649
      3643      3634      3647      3650      3644      3643      3634      3647
      3645      3643      3634      3647      3646      3643      3634      3647
      3647      3650      3657      3653      3648      3647      3650      3651
      3648      3647      3650      3652      3648      3647      3650      3657
      3649      3647      3650      3651      3649      3647      3650      3652
      3649      3647      3650      3657      3650      3657      3653      3654
      3650      3657      3653      3655      3650      3657      3653      3656
      3651      3650      3657      3653      3652      3650      3657      3653
      3653      3656      3658      3659      3653      3656      3658      3660
      3653      3656      3658      3663      3654      3653      3656      3658
      3655      3653      3656      3658      3656      3658      3663      3661
      3656      3658      3663      3664      3656      3658      3663      3665
      3657      3653      3656      3658      3658      3663      3661      3662
      3658      3663      3661      3713      3658      3663      3665      3666
      3658      3663      3665      3667      3658      3663      3665      3669
      3659      3658      3663      3661      3659      3658      3663      3664
      3659      3658      3663      3665      3660      3658      3663      3661
      3660      3658      3663      3664      3660      3658      3663      3665
      3661      3663      3665      3666      3661      3663      3665      3667
      3661      3663      3665      3669      3661      3713      3715      3716
      3661      3713      3715      3717      3661      3713      3715      3718
      3662      3661      3663      3664      3662      3661      3663      3665
      3662      3661      3713      3714      3662      3661      3713      3715
      3663      3661      3713      3714      3663      3661      3713      3715
      3663      3665      3667      3668      3663      3665      3669      3670
      3663      3665      3669      3671      3664      3663      3661      3713
      3664      3663      3665      3666      3664      3663      3665      3667
      3664      3663      3665      3669      3665      3663      3661      3713
      3665      3669      3671      3672      3665      3669      3671      3673
      3666      3665      3667      3668      3666      3665      3669      3670
      3666      3665      3669      3671      3667      3665      3669      3670
      3667      3665      3669      3671      3668      3667      3665      3669
      3669      3671      3673      3674      3669      3671      3673      3675
      3669      3671      3673      3676      3670      3669      3671      3672
      3670      3669      3671      3673      3671      3673      3676      3677
      3671      3673      3676      3678      3671      3673      3676      3679
      3672      3671      3673      3674      3672      3671      3673      3675
      3672      3671      3673      3676      3673      3676      3679      3680
      3673      3676      3679      3681      3673      3676      3679      3682
      3674      3673      3676      3677      3674      3673      3676      3678
      3674      3673      3676      3679      3675      3673      3676      3677
      3675      3673      3676      3678      3675      3673      3676      3679
      3676      3679      3682      3683      3676      3679      3682      3684
      3676      3679      3682      3685      3677      3676      3679      3680
      3677      3676      3679      3681      3677      3676      3679      3682
      3678      3676      3679      3680      3678      3676      3679      3681
      3678      3676      3679      3682      3679      3682      3685      3686
      3679      3682      3685      3687      3679      3682      3685      3688
      3680      3679      3682      3683      3680      3679      3682      3684
      3680      3679      3682      3685      3681      3679      3682      3683
      3681      3679      3682      3684      3681      3679      3682      3685
      3682      3685      3688      3689      3682      3685      3688      3690
      3682      3685      3688      3691      3683      3682      3685      3686
      3683      3682      3685      3687      3683      3682      3685      3688
      3684      3682      3685      3686      3684      3682      3685      3687
      3684      3682      3685      3688      3685      3688      3691      3692
      3685      3688      3691      3693      3685      3688      3691      3694
      3686      3685      3688      3689      3686      3685      3688      3690
      3686      3685      3688      3691      3687      3685      3688      3689
      3687      3685      3688      3690      3687      3685      3688      3691
      3688      3691      3694      3695      3688      3691      3694      3696
      3688      3691      3694      3697      3689      3688      3691      3692
      3689      3688      3691      3693      3689      3688      3691      3694
      3690      3688      3691      3692      3690      3688      3691      3693
      3690      3688      3691      3694      3691      3694      3697      3698
      3691      3694      3697      3699      3691      3694      3697      3700
      3692      3691      3694      3695      3692      3691      3694      3696
      3692      3691      3694      3697      3693      3691      3694      3695
      3693      3691      3694      3696      3693      3691      3694      3697
      3694      3697      3700      3701      3694      3697      3700      3702
      3694      3697      3700      3703      3695      3694      3697      3698
      3695      3694      3697      3699      3695      3694      3697      3700
      3696      3694      3697      3698      3696      3694      3697      3699
      3696      3694      3697      3700      3697      3700      3703      3704
      3697      3700      3703      3705      3697      3700      3703      3706
      3698      3697      3700      3701      3698      3697      3700      3702
      3698      3697      3700      3703      3699      3697      3700      3701
      3699      3697      3700      3702      3699      3697      3700      3703
      3700      3703      3706      3707      3700      3703      3706      3708
      3700      3703      3706      3709      3701      3700      3703      3704
      3701      3700      3703      3705      3701      3700      3703      3706
      3702      3700      3703      3704      3702      3700      3703      3705
      3702      3700      3703      3706      3703      3706      3709      3710
      3703      3706      3709      3711      3703      3706      3709      3712
      3704      3703      3706      3707      3704      3703      3706      3708
      3704      3703      3706      3709      3705      3703      3706      3707
      3705      3703      3706      3708      3705      3703      3706      3709
      3707      3706      3709      3710      3707      3706      3709      3711
      3707      3706      3709      3712      3708      3706      3709      3710
      3708      3706      3709      3711      3708      3706      3709      3712
      3713      3715      3718      3719      3713      3715      3718      3720
      3713      3715      3718      3721      3714      3713      3715      3716
      3714      3713      3715      3717      3714      3713      3715      3718
      3715      3718      3721      3722      3715      3718      3721      3723
      3715      3718      3721      3724      3716      3715      3718      3719
      3716      3715      3718      3720      3716      3715      3718      3721
      3717      3715      3718      3719      3717      3715      3718      3720
      3717      3715      3718      3721      3718      3721      3724      3725
      3718      3721      3724      3726      3718      3721      3724      3727
      3719      3718      3721      3722      3719      3718      3721      3723
      3719      3718      3721      3724      3720      3718      3721      3722
      3720      3718      3721      3723      3720      3718      3721      3724
      3721      3724      3727      3728      3721      3724      3727      3729
      3721      3724      3727      3730      3722      3721      3724      3725
      3722      3721      3724      3726      3722      3721      3724      3727
      3723      3721      3724      3725      3723      3721      3724      3726
      3723      3721      3724      3727      3724      3727      3730      3731
      3724      3727      3730      3732      3724      3727      3730      3733
      3725      3724      3727      3728      3725      3724      3727      3729
      3725      3724      3727      3730      3726      3724      3727      3728
      3726      3724      3727      3729      3726      3724      3727      3730
      3727      3730      3733      3734      3727      3730      3733      3735
      3727      3730      3733      3736      3728      3727      3730      3731
      3728      3727      3730      3732      3728      3727      3730      3733
      3729      3727      3730      3731      3729      3727      3730      3732
      3729      3727      3730      3733      3730      3733      3736      3737
      3730      3733      3736      3738      3731      3730      3733      3734
      3731      3730      3733      3735      3731      3730      3733      3736
      3732      3730      3733      3734      3732      3730      3733      3735
      3732      3730      3733      3736      3733      3736      3738      3739
      3733      3736      3738      3740      3734      3733      3736      3737
      3734      3733      3736      3738      3735      3733      3736      3737
      3735      3733      3736      3738      3736      3738      3740      3741
      3736      3738      3740      3742      3736      3738      3740      3743
      3737      3736      3738      3739      3737      3736      3738      3740
      3738      3740      3743      3744      3738      3740      3743      3745
      3738      3740      3743      3746      3739      3738      3740      3741
      3739      3738      3740      3742      3739      3738      3740      3743
      3740      3743      3746      3747      3740      3743      3746      3748
      3740      3743      3746      3749      3741      3740      3743      3744
      3741      3740      3743      3745      3741      3740      3743      3746
      3742      3740      3743      3744      3742      3740      3743      3745
      3742      3740      3743      3746      3743      3746      3749      3750
      3743      3746      3749      3751      3743      3746      3749      3752
      3744      3743      3746      3747      3744      3743      3746      3748
      3744      3743      3746      3749      3745      3743      3746      3747
      3745      3743      3746      3748      3745      3743      3746      3749
      3746      3749      3752      3753      3746      3749      3752      3754
      3746      3749      3752      3755      3747      3746      3749      3750
      3747      3746      3749      3751      3747      3746      3749      3752
      3748      3746      3749      3750      3748      3746      3749      3751
      3748      3746      3749      3752      3749      3752      3755      3756
      3749      3752      3755      3757      3749      3752      3755      3758
      3750      3749      3752      3753      3750      3749      3752      3754
      3750      3749      3752      3755      3751      3749      3752      3753
      3751      3749      3752      3754      3751      3749      3752      3755
      3752      3755      3758      3759      3752      3755      3758      3760
      3752      3755      3758      3761      3753      3752      3755      3756
      3753      3752      3755      3757      3753      3752      3755      3758
      3754      3752      3755      3756      3754      3752      3755      3757
      3754      3752      3755      3758      3755      3758      3761      3762
      3755      3758      3761      3763      3755      3758      3761      3764
      3756      3755      3758      3759      3756      3755      3758      3760
      3756      3755      3758      3761      3757      3755      3758      3759
      3757      3755      3758      3760      3757      3755      3758      3761
      3759      3758      3761      3762      3759      3758      3761      3763
      3759      3758      3761      3764      3760      3758      3761      3762
      3760      3758      3761      3763      3760      3758      3761      3764
      3765      3778      3781      3782      3765      3778      3781      3783
      3765      3778      3781      3788      3766      3765      3770      3771
      3766      3765      3770      3772      3766      3765      3770      3773
      3766      3765      3774      3775      3766      3765      3774      3776
      3766      3765      3774      3777      3766      3765      3778      3779
      3766      3765      3778      3780      3766      3765      3778      3781
      3767      3766      3765      3770      3767      3766      3765      3774
      3767      3766      3765      3778      3768      3766      3765      3770
      3768      3766      3765      3774      3768      3766      3765      3778
      3769      3766      3765      3770      3769      3766      3765      3774
      3769      3766      3765      3778      3770      3765      3774      3775
      3770      3765      3774      3776      3770      3765      3774      3777
      3770      3765      3778      3779      3770      3765      3778      3780
      3770      3765      3778      3781      3771      3770      3765      3774
      3771      3770      3765      3778      3772      3770      3765      3774
      3772      3770      3765      3778      3773      3770      3765      3774
      3773      3770      3765      3778      3774      3765      3778      3779
      3774      3765      3778      3780      3774      3765      3778      3781
      3775      3774      3765      3778      3776      3774      3765      3778
      3777      3774      3765      3778      3778      3781      3788      3784
      3779      3778      3781      3782      3779      3778      3781      3783
      3779      3778      3781      3788      3780      3778      3781      3782
      3780      3778      3781      3783      3780      3778      3781      3788
      3781      3788      3784      3785      3781      3788      3784      3786
      3781      3788      3784      3787      3782      3781      3788      3784
      3783      3781      3788      3784      3784      3787      3789      3790
      3784      3787      3789      3791      3784      3787      3789      3794
      3785      3784      3787      3789      3786      3784      3787      3789
      3787      3789      3794      3792      3787      3789      3794      3795
      3787      3789      3794      3796      3788      3784      3787      3789
      3789      3794      3792      3793      3789      3794      3792      3844
      3789      3794      3796      3797      3789      3794      3796      3798
      3789      3794      3796      3800      3790      3789      3794      3792
      3790      3789      3794      3795      3790      3789      3794      3796
      3791      3789      3794      3792      3791      3789      3794      3795
      3791      3789      3794      3796      3792      3794      3796      3797
      3792      3794      3796      3798      3792      3794      3796      3800
      3792      3844      3846      3847      3792      3844      3846      3848
      3792      3844      3846      3849      3793      3792      3794      3795
      3793      3792      3794      3796      3793      3792      3844      3845
      3793      3792      3844      3846      3794      3792      3844      3845
      3794      3792      3844      3846      3794      3796      3798      3799
      3794      3796      3800      3801      3794      3796      3800      3802
      3795      3794      3792      3844      3795      3794      3796      3797
      3795      3794      3796      3798      3795      3794      3796      3800
      3796      3794      3792      3844      3796      3800      3802      3803
      3796      3800      3802      3804      3797      3796      3798      3799
      3797      3796      3800      3801      3797      3796      3800      3802
      3798      3796      3800      3801      3798      3796      3800      3802
      3799      3798      3796      3800      3800      3802      3804      3805
      3800      3802      3804      3806      3800      3802      3804      3807
      3801      3800      3802      3803      3801      3800      3802      3804
      3802      3804      3807      3808      3802      3804      3807      3809
      3802      3804      3807      3810      3803      3802      3804      3805
      3803      3802      3804      3806      3803      3802      3804      3807
      3804      3807      3810      3811      3804      3807      3810      3812
      3804      3807      3810      3813      3805      3804      3807      3808
      3805      3804      3807      3809      3805      3804      3807      3810
      3806      3804      3807      3808      3806      3804      3807      3809
      3806      3804      3807      3810      3807      3810      3813      3814
      3807      3810      3813      3815      3807      3810      3813      3816
      3808      3807      3810      3811      3808      3807      3810      3812
      3808      3807      3810      3813      3809      3807      3810      3811
      3809      3807      3810      3812      3809      3807      3810      3813
      3810      3813      3816      3817      3810      3813      3816      3818
      3810      3813      3816      3819      3811      3810      3813      3814
      3811      3810      3813      3815      3811      3810      3813      3816
      3812      3810      3813      3814      3812      3810      3813      3815
      3812      3810      3813      3816      3813      3816      3819      3820
      3813      3816      3819      3821      3813      3816      3819      3822
      3814      3813      3816      3817      3814      3813      3816      3818
      3814      3813      3816      3819      3815      3813      3816      3817
      3815      3813      3816      3818      3815      3813      3816      3819
      3816      3819      3822      3823      3816      3819      3822      3824
      3816      3819      3822      3825      3817      3816      3819      3820
      3817      3816      3819      3821      3817      3816      3819      3822
      3818      3816      3819      3820      3818      3816      3819      3821
      3818      3816      3819      3822      3819      3822      3825      3826
      3819      3822      3825      3827      3819      3822      3825      3828
      3820      3819      3822      3823      3820      3819      3822      3824
      3820      3819      3822      3825      3821      3819      3822      3823
      3821      3819      3822      3824      3821      3819      3822      3825
      3822      3825      3828      3829      3822      3825      3828      3830
      3822      3825      3828      3831      3823      3822      3825      3826
      3823      3822      3825      3827      3823      3822      3825      3828
      3824      3822      3825      3826      3824      3822      3825      3827
      3824      3822      3825      3828      3825      3828      3831      3832
      3825      3828      3831      3833      3825      3828      3831      3834
      3826      3825      3828      3829      3826      3825      3828      3830
      3826      3825      3828      3831      3827      3825      3828      3829
      3827      3825      3828      3830      3827      3825      3828      3831
      3828      3831      3834      3835      3828      3831      3834      3836
      3828      3831      3834      3837      3829      3828      3831      3832
      3829      3828      3831      3833      3829      3828      3831      3834
      3830      3828      3831      3832      3830      3828      3831      3833
      3830      3828      3831      3834      3831      3834      3837      3838
      3831      3834      3837      3839      3831      3834      3837      3840
      3832      3831      3834      3835      3832      3831      3834      3836
      3832      3831      3834      3837      3833      3831      3834      3835
      3833      3831      3834      3836      3833      3831      3834      3837
      3834      3837      3840      3841      3834      3837      3840      3842
      3834      3837      3840      3843      3835      3834      3837      3838
      3835      3834      3837      3839      3835      3834      3837      3840
      3836      3834      3837      3838      3836      3834      3837      3839
      3836      3834      3837      3840      3838      3837      3840      3841
      3838      3837      3840      3842      3838      3837      3840      3843
      3839      3837      3840      3841      3839      3837      3840      3842
      3839      3837      3840      3843      3844      3846      3849      3850
      3844      3846      3849      3851      3844      3846      3849      3852
      3845      3844      3846      3847      3845      3844      3846      3848
      3845      3844      3846      3849      3846      3849      3852      3853
      3846      3849      3852      3854      3846      3849      3852      3855
      3847      3846      3849      3850      3847      3846      3849      3851
      3847      3846      3849      3852      3848      3846      3849      3850
      3848      3846      3849      3851      3848      3846      3849      3852
      3849      3852      3855      3856      3849      3852      3855      3857
      3849      3852      3855      3858      3850      3849      3852      3853
      3850      3849      3852      3854      3850      3849      3852      3855
      3851      3849      3852      3853      3851      3849      3852      3854
      3851      3849      3852      3855      3852      3855      3858      3859
      3852      3855      3858      3860      3852      3855      3858      3861
      3853      3852      3855      3856      3853      3852      3855      3857
      3853      3852      3855      3858      3854      3852      3855      3856
      3854      3852      3855      3857      3854      3852      3855      3858
      3855      3858      3861      3862      3855      3858      3861      3863
      3855      3858      3861      3864      3856      3855      3858      3859
      3856      3855      3858      3860      3856      3855      3858      3861
      3857      3855      3858      3859      3857      3855      3858      3860
      3857      3855      3858      3861      3858      3861      3864      3865
      3858      3861      3864      3866      3858      3861      3864      3867
      3859      3858      3861      3862      3859      3858      3861      3863
      3859      3858      3861      3864      3860      3858      3861      3862
      3860      3858      3861      3863      3860      3858      3861      3864
      3861      3864      3867      3868      3861      3864      3867      3869
      3862      3861      3864      3865      3862      3861      3864      3866
      3862      3861      3864      3867      3863      3861      3864      3865
      3863      3861      3864      3866      3863      3861      3864      3867
      3864      3867      3869      3870      3864      3867      3869      3871
      3865      3864      3867      3868      3865      3864      3867      3869
      3866      3864      3867      3868      3866      3864      3867      3869
      3867      3869      3871      3872      3867      3869      3871      3873
      3867      3869      3871      3874      3868      3867      3869      3870
      3868      3867      3869      3871      3869      3871      3874      3875
      3869      3871      3874      3876      3869      3871      3874      3877
      3870      3869      3871      3872      3870      3869      3871      3873
      3870      3869      3871      3874      3871      3874      3877      3878
      3871      3874      3877      3879      3871      3874      3877      3880
      3872      3871      3874      3875      3872      3871      3874      3876
      3872      3871      3874      3877      3873      3871      3874      3875
      3873      3871      3874      3876      3873      3871      3874      3877
      3874      3877      3880      3881      3874      3877      3880      3882
      3874      3877      3880      3883      3875      3874      3877      3878
      3875      3874      3877      3879      3875      3874      3877      3880
      3876      3874      3877      3878      3876      3874      3877      3879
      3876      3874      3877      3880      3877      3880      3883      3884
      3877      3880      3883      3885      3877      3880      3883      3886
      3878      3877      3880      3881      3878      3877      3880      3882
      3878      3877      3880      3883      3879      3877      3880      3881
      3879      3877      3880      3882      3879      3877      3880      3883
      3880      3883      3886      3887      3880      3883      3886      3888
      3880      3883      3886      3889      3881      3880      3883      3884
      3881      3880      3883      3885      3881      3880      3883      3886
      3882      3880      3883      3884      3882      3880      3883      3885
      3882      3880      3883      3886      3883      3886      3889      3890
      3883      3886      3889      3891      3883      3886      3889      3892
      3884      3883      3886      3887      3884      3883      3886      3888
      3884      3883      3886      3889      3885      3883      3886      3887
      3885      3883      3886      3888      3885      3883      3886      3889
      3886      3889      3892      3893      3886      3889      3892      3894
      3886      3889      3892      3895      3887      3886      3889      3890
      3887      3886      3889      3891      3887      3886      3889      3892
      3888      3886      3889      3890      3888      3886      3889      3891
      3888      3886      3889      3892      3890      3889      3892      3893
      3890      3889      3892      3894      3890      3889      3892      3895
      3891      3889      3892      3893      3891      3889      3892      3894
      3891      3889      3892      3895      3896      3900      3902      3903
      3896      3900      3902      3904      3896      3900      3905      3906
      3896      3900      3905      3907      3896      3900      3905      3911
      3897      3896      3900      3901      3897      3896      3900      3902
      3897      3896      3900      3905      3898      3896      3900      3901
      3898      3896      3900      3902      3898      3896      3900      3905
      3899      3896      3900      3901      3899      3896      3900      3902
      3899      3896      3900      3905      3900      3905      3911      3908
      3901      3900      3902      3903      3901      3900      3902      3904
      3901      3900      3905      3906      3901      3900      3905      3907
      3901      3900      3905      3911      3902      3900      3905      3906
      3902      3900      3905      3907      3902      3900      3905      3911
      3903      3902      3900      3905      3904      3902      3900      3905
      3905      3911      3908      3909      3905      3911      3908      3910
      3905      3911      3908      3912      3906      3905      3911      3908
      3907      3905      3911      3908      3908      3912      3913      3914
      3908      3912      3913      3915      3908      3912      3913      3916
      3909      3908      3912      3913      3910      3908      3912      3913
      3911      3908      3912      3913      3912      3913      3916      3917
      3912      3913      3916      3918      3912      3913      3916      3924
      3913      3916      3918      3919      3913      3916      3924      3925
      3913      3916      3924      3926      3913      3916      3924      3927
      3914      3913      3916      3917      3914      3913      3916      3918
      3914      3913      3916      3924      3915      3913      3916      3917
      3915      3913      3916      3918      3915      3913      3916      3924
      3916      3918      3919      3920      3916      3918      3919      3921
      3916      3924      3927      3928      3917      3916      3918      3919
      3917      3916      3924      3925      3917      3916      3924      3926
      3917      3916      3924      3927      3918      3916      3924      3925
      3918      3916      3924      3926      3918      3916      3924      3927
      3918      3919      3921      3922      3918      3919      3921      3923
      3918      3919      3921      3933      3919      3918      3916      3924
      3919      3921      3933      3934      3919      3921      3933      3935
      3919      3921      3933      3936      3920      3919      3921      3922
      3920      3919      3921      3923      3920      3919      3921      3933
      3921      3933      3936      3937      3921      3933      3936      3938
      3921      3933      3936      3939      3922      3921      3933      3934
      3922      3921      3933      3935      3922      3921      3933      3936
      3923      3921      3933      3934      3923      3921      3933      3935
      3923      3921      3933      3936      3924      3927      3928      3929
      3924      3927      3928      3930      3925      3924      3927      3928
      3926      3924      3927      3928      3927      3928      3930      3931
      3927      3928      3930      3932      3927      3928      3930      3980
      3928      3930      3980      3981      3928      3930      3980      3982
      3928      3930      3980      3983      3929      3928      3930      3931
      3929      3928      3930      3932      3929      3928      3930      3980
      3930      3980      3983      3984      3930      3980      3983      3985
      3930      3980      3983      3986      3931      3930      3980      3981
      3931      3930      3980      3982      3931      3930      3980      3983
      3932      3930      3980      3981      3932      3930      3980      3982
      3932      3930      3980      3983      3933      3936      3939      3940
      3933      3936      3939      3941      3934      3933      3936      3937
      3934      3933      3936      3938      3934      3933      3936      3939
      3935      3933      3936      3937      3935      3933      3936      3938
      3935      3933      3936      3939      3936      3939      3941      3942
      3936      3939      3941      3943      3937      3936      3939      3940
      3937      3936      3939      3941      3938      3936      3939      3940
      3938      3936      3939      3941      3939      3941      3943      3944
      3939      3941      3943      3945      3939      3941      3943      3946
      3940      3939      3941      3942      3940      3939      3941      3943
      3941      3943      3946      3947      3941      3943      3946      3948
      3942      3941      3943      3944      3942      3941      3943      3945
      3942      3941      3943      3946      3943      3946      3948      3949
      3943      3946      3948      3950      3944      3943      3946      3947
      3944      3943      3946      3948      3945      3943      3946      3947
      3945      3943      3946      3948      3946      3948      3950      3951
      3946      3948      3950      3952      3946      3948      3950      3953
      3947      3946      3948      3949      3947      3946      3948      3950
      3948      3950      3953      3954      3948      3950      3953      3955
      3949      3948      3950      3951      3949      3948      3950      3952
      3949      3948      3950      3953      3950      3953      3955      3956
      3950      3953      3955      3957      3951      3950      3953      3954
      3951      3950      3953      3955      3952      3950      3953      3954
      3952      3950      3953      3955      3953      3955      3957      3958
      3953      3955      3957      3959      3953      3955      3957      3960
      3954      3953      3955      3956      3954      3953      3955      3957
      3955      3957      3960      3961      3955      3957      3960      3962
      3956      3955      3957      3958      3956      3955      3957      3959
      3956      3955      3957      3960      3957      3960      3962      3963
      3957      3960      3962      3964      3958      3957      3960      3961
      3958      3957      3960      3962      3959      3957      3960      3961
      3959      3957      3960      3962      3960      3962      3964      3965
      3960      3962      3964      3966      3960      3962      3964      3967
      3961      3960      3962      3963      3961      3960      3962      3964
      3962      3964      3967      3968      3962      3964      3967      3969
      3962      3964      3967      3970      3963      3962      3964      3965
      3963      3962      3964      3966      3963      3962      3964      3967
      3964      3967      3970      3971      3964      3967      3970      3972
      3964      3967      3970      3973      3965      3964      3967      3968
      3965      3964      3967      3969      3965      3964      3967      3970
      3966      3964      3967      3968      3966      3964      3967      3969
      3966      3964      3967      3970      3967      3970      3973      3974
      3967      3970      3973      3975      3967      3970      3973      3976
      3968      3967      3970      3971      3968      3967      3970      3972
      3968      3967      3970      3973      3969      3967      3970      3971
      3969      3967      3970      3972      3969      3967      3970      3973
      3970      3973      3976      3977      3970      3973      3976      3978
      3970      3973      3976      3979      3971      3970      3973      3974
      3971      3970      3973      3975      3971      3970      3973      3976
      3972      3970      3973      3974      3972      3970      3973      3975
      3972      3970      3973      3976      3974      3973      3976      3977
      3974      3973      3976      3978      3974      3973      3976      3979
      3975      3973      3976      3977      3975      3973      3976      3978
      3975      3973      3976      3979      3980      3983      3986      3987
      3980      3983      3986      3988      3980      3983      3986      3989
      3981      3980      3983      3984      3981      3980      3983      3985
      3981      3980      3983      3986      3982      3980      3983      3984
      3982      3980      3983      3985      3982      3980      3983      3986
      3983      3986      3989      3990      3983      3986      3989      3991
      3983      3986      3989      3992      3984      3983      3986      3987
      3984      3983      3986      3988      3984      3983      3986      3989
      3985      3983      3986      3987      3985      3983      3986      3988
      3985      3983      3986      3989      3986      3989      3992      3993
      3986      3989      3992      3994      3986      3989      3992      3995
      3987      3986      3989      3990      3987      3986      3989      3991
      3987      3986      3989      3992      3988      3986      3989      3990
      3988      3986      3989      3991      3988      3986      3989      3992
      3989      3992      3995      3996      3989      3992      3995      3997
      3989      3992      3995      3998      3990      3989      3992      3993
      3990      3989      3992      3994      3990      3989      3992      3995
      3991      3989      3992      3993      3991      3989      3992      3994
      3991      3989      3992      3995      3992      3995      3998      3999
      3992      3995      3998      4000      3992      3995      3998      4001
      3993      3992      3995      3996      3993      3992      3995      3997
      3993      3992      3995      3998      3994      3992      3995      3996
      3994      3992      3995      3997      3994      3992      3995      3998
      3995      3998      4001      4002      3995      3998      4001      4003
      3995      3998      4001      4004      3996      3995      3998      3999
      3996      3995      3998      4000      3996      3995      3998      4001
      3997      3995      3998      3999      3997      3995      3998      4000
      3997      3995      3998      4001      3998      4001      4004      4005
      3998      4001      4004      4006      3998      4001      4004      4007
      3999      3998      4001      4002      3999      3998      4001      4003
      3999      3998      4001      4004      4000      3998      4001      4002
      4000      3998      4001      4003      4000      3998      4001      4004
      4001      4004      4007      4008      4001      4004      4007      4009
      4001      4004      4007      4010      4002      4001      4004      4005
      4002      4001      4004      4006      4002      4001      4004      4007
      4003      4001      4004      4005      4003      4001      4004      4006
      4003      4001      4004      4007      4004      4007      4010      4011
      4004      4007      4010      4012      4004      4007      4010      4013
      4005      4004      4007      4008      4005      4004      4007      4009
      4005      4004      4007      4010      4006      4004      4007      4008
      4006      4004      4007      4009      4006      4004      4007      4010
      4007      4010      4013      4014      4007      4010      4013      4015
      4007      4010      4013      4016      4008      4007      4010      4011
      4008      4007      4010      4012      4008      4007      4010      4013
      4009      4007      4010      4011      4009      4007      4010      4012
      4009      4007      4010      4013      4010      4013      4016      4017
      4010      4013      4016      4018      4010      4013      4016      4019
      4011      4010      4013      4014      4011      4010      4013      4015
      4011      4010      4013      4016      4012      4010      4013      4014
      4012      4010      4013      4015      4012      4010      4013      4016
      4013      4016      4019      4020      4013      4016      4019      4021
      4013      4016      4019      4022      4014      4013      4016      4017
      4014      4013      4016      4018      4014      4013      4016      4019
      4015      4013      4016      4017      4015      4013      4016      4018
      4015      4013      4016      4019      4016      4019      4022      4023
      4016      4019      4022      4024      4016      4019      4022      4025
      4017      4016      4019      4020      4017      4016      4019      4021
      4017      4016      4019      4022      4018      4016      4019      4020
      4018      4016      4019      4021      4018      4016      4019      4022
      4019      4022      4025      4026      4019      4022      4025      4027
      4019      4022      4025      4028      4020      4019      4022      4023
      4020      4019      4022      4024      4020      4019      4022      4025
      4021      4019      4022      4023      4021      4019      4022      4024
      4021      4019      4022      4025      4023      4022      4025      4026
      4023      4022      4025      4027      4023      4022      4025      4028
      4024      4022      4025      4026      4024      4022      4025      4027
      4024      4022      4025      4028      4029      4033      4036      4037
      4029      4033      4036      4067      4029      4075      4072      4067
      4029      4075      4072      4073      4029      4075      4072      4074
      4030      4029      4031      4032      4030      4029      4033      4034
      4030      4029      4033      4035      4030      4029      4033      4036
      4030      4029      4075      4072      4030      4029      4075      4076
      4030      4029      4075      4077      4031      4029      4033      4034
      4031      4029      4033      4035      4031      4029      4033      4036
      4031      4029      4075      4072      4031      4029      4075      4076
      4031      4029      4075      4077      4032      4031      4029      4033
      4032      4031      4029      4075      4033      4029      4075      4072
      4033      4029      4075      4076      4033      4029      4075      4077
      4033      4036      4037      4038      4033      4036      4037      4039
      4033      4036      4067      4065      4033      4036      4067      4068
      4033      4036      4067      4072      4034      4033      4029      4075
      4034      4033      4036      4037      4034      4033      4036      4067
      4035      4033      4029      4075      4035      4033      4036      4037
      4035      4033      4036      4067      4036      4033      4029      4075
      4036      4037      4039      4040      4036      4037      4039      4041
      4036      4037      4039      4042      4036      4067      4065      4042
      4036      4067      4065      4062      4036      4067      4065      4066
      4036      4067      4068      4069      4036      4067      4068      4070
      4036      4067      4068      4071      4036      4067      4072      4073
      4036      4067      4072      4074      4036      4067      4072      4075
      4037      4036      4067      4065      4037      4036      4067      4068
      4037      4036      4067      4072      4037      4039      4042      4043
      4037      4039      4042      4044      4037      4039      4042      4065
      4038      4037      4036      4067      4038      4037      4039      4040
      4038      4037      4039      4041      4038      4037      4039      4042
      4039      4037      4036      4067      4039      4042      4044      4045
      4039      4042      4044      4046      4039      4042      4044      4054
      4039      4042      4065      4062      4039      4042      4065      4066
      4039      4042      4065      4067      4040      4039      4042      4043
      4040      4039      4042      4044      4040      4039      4042      4065
      4041      4039      4042      4043      4041      4039      4042      4044
      4041      4039      4042      4065      4042      4044      4046      4047
      4042      4044      4046      4048      4042      4044      4046      4049
      4042      4044      4054      4052      4042      4044      4054      4055
      4042      4044      4054      4059      4042      4065      4062      4059
      4042      4065      4062      4063      4042      4065      4062      4064
      4042      4065      4067      4068      4042      4065      4067      4072
      4043      4042      4044      4045      4043      4042      4044      4046
      4043      4042      4044      4054      4043      4042      4065      4062
      4043      4042      4065      4066      4043      4042      4065      4067
      4044      4042      4065      4062      4044      4042      4065      4066
      4044      4042      4065      4067      4044      4046      4049      4050
      4044      4046      4049      4051      4044      4046      4049      4052
      4044      4054      4052      4049      4044      4054      4052      4053
      4044      4054      4052      4078      4044      4054      4055      4056
      4044      4054      4055      4057      4044      4054      4055      4058
      4044      4054      4059      4060      4044      4054      4059      4061
      4044      4054      4059      4062      4045      4044      4042      4065
      4045      4044      4046      4047      4045      4044      4046      4048
      4045      4044      4046      4049      4045      4044      4054      4052
      4045      4044      4054      4055      4045      4044      4054      4059
      4046      4044      4042      4065      4046      4044      4054      4052
      4046      4044      4054      4055      4046      4044      4054      4059
      4046      4049      4052      4053      4046      4049      4052      4054
      4046      4049      4052      4078      4047      4046      4044      4054
      4047      4046      4049      4050      4047      4046      4049      4051
      4047      4046      4049      4052      4048      4046      4044      4054
      4048      4046      4049      4050      4048      4046      4049      4051
      4048      4046      4049      4052      4049      4046      4044      4054
      4049      4052      4054      4055      4049      4052      4054      4059
      4049      4052      4078      4079      4049      4052      4078      4080
      4049      4052      4078      4084      4050      4049      4052      4053
      4050      4049      4052      4054      4050      4049      4052      4078
      4051      4049      4052      4053      4051      4049      4052      4054
      4051      4049      4052      4078      4052      4054      4055      4056
      4052      4054      4055      4057      4052      4054      4055      4058
      4052      4054      4059      4060      4052      4054      4059      4061
      4052      4054      4059      4062      4052      4078      4080      4081
      4052      4078      4080      4082      4052      4078      4080      4083
      4052      4078      4084      4085      4052      4078      4084      4086
      4052      4078      4084      4087      4053      4052      4054      4055
      4053      4052      4054      4059      4053      4052      4078      4079
      4053      4052      4078      4080      4053      4052      4078      4084
      4054      4044      4042      4065      4054      4052      4078      4079
      4054      4052      4078      4080      4054      4052      4078      4084
      4054      4059      4062      4063      4054      4059      4062      4064
      4054      4059      4062      4065      4055      4054      4052      4078
      4055      4054      4059      4060      4055      4054      4059      4061
      4055      4054      4059      4062      4056      4055      4054      4059
      4057      4055      4054      4059      4058      4055      4054      4059
      4059      4054      4052      4078      4059      4062      4065      4066
      4059      4062      4065      4067      4060      4059      4062      4063
      4060      4059      4062      4064      4060      4059      4062      4065
      4061      4059      4062      4063      4061      4059      4062      4064
      4061      4059      4062      4065      4062      4065      4067      4068
      4062      4065      4067      4072      4063      4062      4065      4066
      4063      4062      4065      4067      4064      4062      4065      4066
      4064      4062      4065      4067      4065      4067      4068      4069
      4065      4067      4068      4070      4065      4067      4068      4071
      4065      4067      4072      4073      4065      4067      4072      4074
      4065      4067      4072      4075      4066      4065      4067      4068
      4066      4065      4067      4072      4067      4072      4075      4076
      4067      4072      4075      4077      4068      4067      4072      4073
      4068      4067      4072      4074      4068      4067      4072      4075
      4069      4068      4067      4072      4070      4068      4067      4072
      4071      4068      4067      4072      4073      4072      4075      4076
      4073      4072      4075      4077      4074      4072      4075      4076
      4074      4072      4075      4077      4078      4084      4087      4088
      4078      4084      4087      4089      4078      4084      4087      4090
      4079      4078      4080      4081      4079      4078      4080      4082
      4079      4078      4080      4083      4079      4078      4084      4085
      4079      4078      4084      4086      4079      4078      4084      4087
      4080      4078      4084      4085      4080      4078      4084      4086
      4080      4078      4084      4087      4081      4080      4078      4084
      4082      4080      4078      4084      4083      4080      4078      4084
      4084      4087      4090      4091      4084      4087      4090      4092
      4084      4087      4090      4093      4085      4084      4087      4088
      4085      4084      4087      4089      4085      4084      4087      4090
      4086      4084      4087      4088      4086      4084      4087      4089
      4086      4084      4087      4090      4087      4090      4093      4094
      4087      4090      4093      4095      4087      4090      4093      4099
      4088      4087      4090      4091      4088      4087      4090      4092
      4088      4087      4090      4093      4089      4087      4090      4091
      4089      4087      4090      4092      4089      4087      4090      4093
      4090      4093      4095      4096      4090      4093      4095      4097
      4090      4093      4095      4098      4090      4093      4099      4100
      4090      4093      4099      4101      4090      4093      4099      4102
      4091      4090      4093      4094      4091      4090      4093      4095
      4091      4090      4093      4099      4092      4090      4093      4094
      4092      4090      4093      4095      4092      4090      4093      4099
      4094      4093      4095      4096      4094      4093      4095      4097
      4094      4093      4095      4098      4094      4093      4099      4100
      4094      4093      4099      4101      4094      4093      4099      4102
      4095      4093      4099      4100      4095      4093      4099      4101
      4095      4093      4099      4102      4096      4095      4093      4099
      4097      4095      4093      4099      4098      4095      4093      4099
      4103      4107      4110      4111      4103      4107      4110      4112
      4103      4107      4110      4116      4104      4103      4107      4108
      4104      4103      4107      4109      4104      4103      4107      4110
      4105      4103      4107      4108      4105      4103      4107      4109
      4105      4103      4107      4110      4106      4103      4107      4108
      4106      4103      4107      4109      4106      4103      4107      4110
      4107      4110      4116      4113      4108      4107      4110      4111
      4108      4107      4110      4112      4108      4107      4110      4116
      4109      4107      4110      4111      4109      4107      4110      4112
      4109      4107      4110      4116      4110      4116      4113      4114
      4110      4116      4113      4115      4110      4116      4113      4117
      4111      4110      4116      4113      4112      4110      4116      4113
      4113      4117      4118      4119      4113      4117      4118      4120
      4113      4117      4118      4121      4114      4113      4117      4118
      4115      4113      4117      4118      4116      4113      4117      4118
      4117      4118      4121      4122      4117      4118      4121      4123
      4117      4118      4121      4129      4118      4121      4123      4124
      4118      4121      4129      4130      4118      4121      4129      4131
      4118      4121      4129      4132      4119      4118      4121      4122
      4119      4118      4121      4123      4119      4118      4121      4129
      4120      4118      4121      4122      4120      4118      4121      4123
      4120      4118      4121      4129      4121      4123      4124      4125
      4121      4123      4124      4126      4121      4129      4132      4133
      4122      4121      4123      4124      4122      4121      4129      4130
      4122      4121      4129      4131      4122      4121      4129      4132
      4123      4121      4129      4130      4123      4121      4129      4131
      4123      4121      4129      4132      4123      4124      4126      4127
      4123      4124      4126      4128      4123      4124      4126      4138
      4124      4123      4121      4129      4124      4126      4138      4139
      4124      4126      4138      4140      4124      4126      4138      4141
      4125      4124      4126      4127      4125      4124      4126      4128
      4125      4124      4126      4138      4126      4138      4141      4142
      4126      4138      4141      4143      4126      4138      4141      4144
      4127      4126      4138      4139      4127      4126      4138      4140
      4127      4126      4138      4141      4128      4126      4138      4139
      4128      4126      4138      4140      4128      4126      4138      4141
      4129      4132      4133      4134      4129      4132      4133      4135
      4130      4129      4132      4133      4131      4129      4132      4133
      4132      4133      4135      4136      4132      4133      4135      4137
      4132      4133      4135      4185      4133      4135      4185      4186
      4133      4135      4185      4187      4133      4135      4185      4188
      4134      4133      4135      4136      4134      4133      4135      4137
      4134      4133      4135      4185      4135      4185      4188      4189
      4135      4185      4188      4190      4135      4185      4188      4191
      4136      4135      4185      4186      4136      4135      4185      4187
      4136      4135      4185      4188      4137      4135      4185      4186
      4137      4135      4185      4187      4137      4135      4185      4188
      4138      4141      4144      4145      4138      4141      4144      4146
      4139      4138      4141      4142      4139      4138      4141      4143
      4139      4138      4141      4144      4140      4138      4141      4142
      4140      4138      4141      4143      4140      4138      4141      4144
      4141      4144      4146      4147      4141      4144      4146      4148
      4142      4141      4144      4145      4142      4141      4144      4146
      4143      4141      4144      4145      4143      4141      4144      4146
      4144      4146      4148      4149      4144      4146      4148      4150
      4144      4146      4148      4151      4145      4144      4146      4147
      4145      4144      4146      4148      4146      4148      4151      4152
      4146      4148      4151      4153      4147      4146      4148      4149
      4147      4146      4148      4150      4147      4146      4148      4151
      4148      4151      4153      4154      4148      4151      4153      4155
      4149      4148      4151      4152      4149      4148      4151      4153
      4150      4148      4151      4152      4150      4148      4151      4153
      4151      4153      4155      4156      4151      4153      4155      4157
      4151      4153      4155      4158      4152      4151      4153      4154
      4152      4151      4153      4155      4153      4155      4158      4159
      4153      4155      4158      4160      4154      4153      4155      4156
      4154      4153      4155      4157      4154      4153      4155      4158
      4155      4158      4160      4161      4155      4158      4160      4162
      4156      4155      4158      4159      4156      4155      4158      4160
      4157      4155      4158      4159      4157      4155      4158      4160
      4158      4160      4162      4163      4158      4160      4162      4164
      4158      4160      4162      4165      4159      4158      4160      4161
      4159      4158      4160      4162      4160      4162      4165      4166
      4160      4162      4165      4167      4161      4160      4162      4163
      4161      4160      4162      4164      4161      4160      4162      4165
      4162      4165      4167      4168      4162      4165      4167      4169
      4163      4162      4165      4166      4163      4162      4165      4167
      4164      4162      4165      4166      4164      4162      4165      4167
      4165      4167      4169      4170      4165      4167      4169      4171
      4165      4167      4169      4172      4166      4165      4167      4168
      4166      4165      4167      4169      4167      4169      4172      4173
      4167      4169      4172      4174      4167      4169      4172      4175
      4168      4167      4169      4170      4168      4167      4169      4171
      4168      4167      4169      4172      4169      4172      4175      4176
      4169      4172      4175      4177      4169      4172      4175      4178
      4170      4169      4172      4173      4170      4169      4172      4174
      4170      4169      4172      4175      4171      4169      4172      4173
      4171      4169      4172      4174      4171      4169      4172      4175
      4172      4175      4178      4179      4172      4175      4178      4180
      4172      4175      4178      4181      4173      4172      4175      4176
      4173      4172      4175      4177      4173      4172      4175      4178
      4174      4172      4175      4176      4174      4172      4175      4177
      4174      4172      4175      4178      4175      4178      4181      4182
      4175      4178      4181      4183      4175      4178      4181      4184
      4176      4175      4178      4179      4176      4175      4178      4180
      4176      4175      4178      4181      4177      4175      4178      4179
      4177      4175      4178      4180      4177      4175      4178      4181
      4179      4178      4181      4182      4179      4178      4181      4183
      4179      4178      4181      4184      4180      4178      4181      4182
      4180      4178      4181      4183      4180      4178      4181      4184
      4185      4188      4191      4192      4185      4188      4191      4193
      4185      4188      4191      4194      4186      4185      4188      4189
      4186      4185      4188      4190      4186      4185      4188      4191
      4187      4185      4188      4189      4187      4185      4188      4190
      4187      4185      4188      4191      4188      4191      4194      4195
      4188      4191      4194      4196      4188      4191      4194      4197
      4189      4188      4191      4192      4189      4188      4191      4193
      4189      4188      4191      4194      4190      4188      4191      4192
      4190      4188      4191      4193      4190      4188      4191      4194
      4191      4194      4197      4198      4191      4194      4197      4199
      4191      4194      4197      4200      4192      4191      4194      4195
      4192      4191      4194      4196      4192      4191      4194      4197
      4193      4191      4194      4195      4193      4191      4194      4196
      4193      4191      4194      4197      4194      4197      4200      4201
      4194      4197      4200      4202      4194      4197      4200      4203
      4195      4194      4197      4198      4195      4194      4197      4199
      4195      4194      4197      4200      4196      4194      4197      4198
      4196      4194      4197      4199      4196      4194      4197      4200
      4197      4200      4203      4204      4197      4200      4203      4205
      4197      4200      4203      4206      4198      4197      4200      4201
      4198      4197      4200      4202      4198      4197      4200      4203
      4199      4197      4200      4201      4199      4197      4200      4202
      4199      4197      4200      4203      4200      4203      4206      4207
      4200      4203      4206      4208      4200      4203      4206      4209
      4201      4200      4203      4204      4201      4200      4203      4205
      4201      4200      4203      4206      4202      4200      4203      4204
      4202      4200      4203      4205      4202      4200      4203      4206
      4203      4206      4209      4210      4203      4206      4209      4211
      4203      4206      4209      4212      4204      4203      4206      4207
      4204      4203      4206      4208      4204      4203      4206      4209
      4205      4203      4206      4207      4205      4203      4206      4208
      4205      4203      4206      4209      4206      4209      4212      4213
      4206      4209      4212      4214      4206      4209      4212      4215
      4207      4206      4209      4210      4207      4206      4209      4211
      4207      4206      4209      4212      4208      4206      4209      4210
      4208      4206      4209      4211      4208      4206      4209      4212
      4209      4212      4215      4216      4209      4212      4215      4217
      4209      4212      4215      4218      4210      4209      4212      4213
      4210      4209      4212      4214      4210      4209      4212      4215
      4211      4209      4212      4213      4211      4209      4212      4214
      4211      4209      4212      4215      4212      4215      4218      4219
      4212      4215      4218      4220      4212      4215      4218      4221
      4213      4212      4215      4216      4213      4212      4215      4217
      4213      4212      4215      4218      4214      4212      4215      4216
      4214      4212      4215      4217      4214      4212      4215      4218
      4215      4218      4221      4222      4215      4218      4221      4223
      4215      4218      4221      4224      4216      4215      4218      4219
      4216      4215      4218      4220      4216      4215      4218      4221
      4217      4215      4218      4219      4217      4215      4218      4220
      4217      4215      4218      4221      4218      4221      4224      4225
      4218      4221      4224      4226      4218      4221      4224      4227
      4219      4218      4221      4222      4219      4218      4221      4223
      4219      4218      4221      4224      4220      4218      4221      4222
      4220      4218      4221      4223      4220      4218      4221      4224
      4221      4224      4227      4228      4221      4224      4227      4229
      4221      4224      4227      4230      4222      4221      4224      4225
      4222      4221      4224      4226      4222      4221      4224      4227
      4223      4221      4224      4225      4223      4221      4224      4226
      4223      4221      4224      4227      4224      4227      4230      4231
      4224      4227      4230      4232      4224      4227      4230      4233
      4225      4224      4227      4228      4225      4224      4227      4229
      4225      4224      4227      4230      4226      4224      4227      4228
      4226      4224      4227      4229      4226      4224      4227      4230
      4228      4227      4230      4231      4228      4227      4230      4232
      4228      4227      4230      4233      4229      4227      4230      4231
      4229      4227      4230      4232      4229      4227      4230      4233
      4234      4238      4240      4241      4234      4238      4242      4243
      4234      4238      4242      4244      4234      4238      4242      4246
      4234      4254      4250      4246      4234      4254      4250      4251
      4234      4254      4250      4252      4234      4254      4259      4256
      4235      4234      4236      4237      4235      4234      4238      4239
      4235      4234      4238      4240      4235      4234      4238      4242
      4235      4234      4254      4250      4235      4234      4254      4255
      4235      4234      4254      4259      4236      4234      4238      4239
      4236      4234      4238      4240      4236      4234      4238      4242
      4236      4234      4254      4250      4236      4234      4254      4255
      4236      4234      4254      4259      4237      4236      4234      4238
      4237      4236      4234      4254      4238      4234      4254      4250
      4238      4234      4254      4255      4238      4234      4254      4259
      4238      4242      4244      4245      4238      4242      4246      4247
      4238      4242      4246      4248      4238      4242      4246      4250
      4239      4238      4234      4254      4239      4238      4240      4241
      4239      4238      4242      4243      4239      4238      4242      4244
      4239      4238      4242      4246      4240      4238      4234      4254
      4240      4238      4242      4243      4240      4238      4242      4244
      4240      4238      4242      4246      4241      4240      4238      4242
      4242      4238      4234      4254      4242      4246      4248      4249
      4242      4246      4250      4251      4242      4246      4250      4252
      4242      4246      4250      4254      4243      4242      4244      4245
      4243      4242      4246      4247      4243      4242      4246      4248
      4243      4242      4246      4250      4244      4242      4246      4247
      4244      4242      4246      4248      4244      4242      4246      4250
      4245      4244      4242      4246      4246      4250      4252      4253
      4246      4250      4254      4255      4246      4250      4254      4259
      4247      4246      4248      4249      4247      4246      4250      4251
      4247      4246      4250      4252      4247      4246      4250      4254
      4248      4246      4250      4251      4248      4246      4250      4252
      4248      4246      4250      4254      4249      4248      4246      4250
      4250      4254      4259      4256      4251      4250      4252      4253
      4251      4250      4254      4255      4251      4250      4254      4259
      4252      4250      4254      4255      4252      4250      4254      4259
      4253      4252      4250      4254      4254      4259      4256      4257
      4254      4259      4256      4258      4254      4259      4256      4260
      4255      4254      4259      4256      4256      4260      4261      4262
      4256      4260      4261      4263      4256      4260      4261      4264
      4257      4256      4260      4261      4258      4256      4260      4261
      4259      4256      4260      4261      4260      4261      4264      4265
      4260      4261      4264      4266      4260      4261      4264      4272
      4261      4264      4266      4267      4261      4264      4272      4273
      4261      4264      4272      4274      4261      4264      4272      4275
      4262      4261      4264      4265      4262      4261      4264      4266
      4262      4261      4264      4272      4263      4261      4264      4265
      4263      4261      4264      4266      4263      4261      4264      4272
      4264      4266      4267      4268      4264      4266      4267      4269
      4264      4272      4275      4276      4265      4264      4266      4267
      4265      4264      4272      4273      4265      4264      4272      4274
      4265      4264      4272      4275      4266      4264      4272      4273
      4266      4264      4272      4274      4266      4264      4272      4275
      4266      4267      4269      4270      4266      4267      4269      4271
      4266      4267      4269      4281      4267      4266      4264      4272
      4267      4269      4281      4282      4267      4269      4281      4283
      4267      4269      4281      4284      4268      4267      4269      4270
      4268      4267      4269      4271      4268      4267      4269      4281
      4269      4281      4284      4285      4269      4281      4284      4286
      4269      4281      4284      4287      4270      4269      4281      4282
      4270      4269      4281      4283      4270      4269      4281      4284
      4271      4269      4281      4282      4271      4269      4281      4283
      4271      4269      4281      4284      4272      4275      4276      4277
      4272      4275      4276      4278      4273      4272      4275      4276
      4274      4272      4275      4276      4275      4276      4278      4279
      4275      4276      4278      4280      4275      4276      4278      4328
      4276      4278      4328      4329      4276      4278      4328      4330
      4276      4278      4328      4331      4277      4276      4278      4279
      4277      4276      4278      4280      4277      4276      4278      4328
      4278      4328      4331      4332      4278      4328      4331      4333
      4278      4328      4331      4334      4279      4278      4328      4329
      4279      4278      4328      4330      4279      4278      4328      4331
      4280      4278      4328      4329      4280      4278      4328      4330
      4280      4278      4328      4331      4281      4284      4287      4288
      4281      4284      4287      4289      4282      4281      4284      4285
      4282      4281      4284      4286      4282      4281      4284      4287
      4283      4281      4284      4285      4283      4281      4284      4286
      4283      4281      4284      4287      4284      4287      4289      4290
      4284      4287      4289      4291      4285      4284      4287      4288
      4285      4284      4287      4289      4286      4284      4287      4288
      4286      4284      4287      4289      4287      4289      4291      4292
      4287      4289      4291      4293      4287      4289      4291      4294
      4288      4287      4289      4290      4288      4287      4289      4291
      4289      4291      4294      4295      4289      4291      4294      4296
      4290      4289      4291      4292      4290      4289      4291      4293
      4290      4289      4291      4294      4291      4294      4296      4297
      4291      4294      4296      4298      4292      4291      4294      4295
      4292      4291      4294      4296      4293      4291      4294      4295
      4293      4291      4294      4296      4294      4296      4298      4299
      4294      4296      4298      4300      4294      4296      4298      4301
      4295      4294      4296      4297      4295      4294      4296      4298
      4296      4298      4301      4302      4296      4298      4301      4303
      4297      4296      4298      4299      4297      4296      4298      4300
      4297      4296      4298      4301      4298      4301      4303      4304
      4298      4301      4303      4305      4299      4298      4301      4302
      4299      4298      4301      4303      4300      4298      4301      4302
      4300      4298      4301      4303      4301      4303      4305      4306
      4301      4303      4305      4307      4301      4303      4305      4308
      4302      4301      4303      4304      4302      4301      4303      4305
      4303      4305      4308      4309      4303      4305      4308      4310
      4304      4303      4305      4306      4304      4303      4305      4307
      4304      4303      4305      4308      4305      4308      4310      4311
      4305      4308      4310      4312      4306      4305      4308      4309
      4306      4305      4308      4310      4307      4305      4308      4309
      4307      4305      4308      4310      4308      4310      4312      4313
      4308      4310      4312      4314      4308      4310      4312      4315
      4309      4308      4310      4311      4309      4308      4310      4312
      4310      4312      4315      4316      4310      4312      4315      4317
      4310      4312      4315      4318      4311      4310      4312      4313
      4311      4310      4312      4314      4311      4310      4312      4315
      4312      4315      4318      4319      4312      4315      4318      4320
      4312      4315      4318      4321      4313      4312      4315      4316
      4313      4312      4315      4317      4313      4312      4315      4318
      4314      4312      4315      4316      4314      4312      4315      4317
      4314      4312      4315      4318      4315      4318      4321      4322
      4315      4318      4321      4323      4315      4318      4321      4324
      4316      4315      4318      4319      4316      4315      4318      4320
      4316      4315      4318      4321      4317      4315      4318      4319
      4317      4315      4318      4320      4317      4315      4318      4321
      4318      4321      4324      4325      4318      4321      4324      4326
      4318      4321      4324      4327      4319      4318      4321      4322
      4319      4318      4321      4323      4319      4318      4321      4324
      4320      4318      4321      4322      4320      4318      4321      4323
      4320      4318      4321      4324      4322      4321      4324      4325
      4322      4321      4324      4326      4322      4321      4324      4327
      4323      4321      4324      4325      4323      4321      4324      4326
      4323      4321      4324      4327      4328      4331      4334      4335
      4328      4331      4334      4336      4328      4331      4334      4337
      4329      4328      4331      4332      4329      4328      4331      4333
      4329      4328      4331      4334      4330      4328      4331      4332
      4330      4328      4331      4333      4330      4328      4331      4334
      4331      4334      4337      4338      4331      4334      4337      4339
      4331      4334      4337      4340      4332      4331      4334      4335
      4332      4331      4334      4336      4332      4331      4334      4337
      4333      4331      4334      4335      4333      4331      4334      4336
      4333      4331      4334      4337      4334      4337      4340      4341
      4334      4337      4340      4342      4334      4337      4340      4343
      4335      4334      4337      4338      4335      4334      4337      4339
      4335      4334      4337      4340      4336      4334      4337      4338
      4336      4334      4337      4339      4336      4334      4337      4340
      4337      4340      4343      4344      4337      4340      4343      4345
      4337      4340      4343      4346      4338      4337      4340      4341
      4338      4337      4340      4342      4338      4337      4340      4343
      4339      4337      4340      4341      4339      4337      4340      4342
      4339      4337      4340      4343      4340      4343      4346      4347
      4340      4343      4346      4348      4340      4343      4346      4349
      4341      4340      4343      4344      4341      4340      4343      4345
      4341      4340      4343      4346      4342      4340      4343      4344
      4342      4340      4343      4345      4342      4340      4343      4346
      4343      4346      4349      4350      4343      4346      4349      4351
      4343      4346      4349      4352      4344      4343      4346      4347
      4344      4343      4346      4348      4344      4343      4346      4349
      4345      4343      4346      4347      4345      4343      4346      4348
      4345      4343      4346      4349      4346      4349      4352      4353
      4346      4349      4352      4354      4346      4349      4352      4355
      4347      4346      4349      4350      4347      4346      4349      4351
      4347      4346      4349      4352      4348      4346      4349      4350
      4348      4346      4349      4351      4348      4346      4349      4352
      4349      4352      4355      4356      4349      4352      4355      4357
      4349      4352      4355      4358      4350      4349      4352      4353
      4350      4349      4352      4354      4350      4349      4352      4355
      4351      4349      4352      4353      4351      4349      4352      4354
      4351      4349      4352      4355      4352      4355      4358      4359
      4352      4355      4358      4360      4352      4355      4358      4361
      4353      4352      4355      4356      4353      4352      4355      4357
      4353      4352      4355      4358      4354      4352      4355      4356
      4354      4352      4355      4357      4354      4352      4355      4358
      4355      4358      4361      4362      4355      4358      4361      4363
      4355      4358      4361      4364      4356      4355      4358      4359
      4356      4355      4358      4360      4356      4355      4358      4361
      4357      4355      4358      4359      4357      4355      4358      4360
      4357      4355      4358      4361      4358      4361      4364      4365
      4358      4361      4364      4366      4358      4361      4364      4367
      4359      4358      4361      4362      4359      4358      4361      4363
      4359      4358      4361      4364      4360      4358      4361      4362
      4360      4358      4361      4363      4360      4358      4361      4364
      4361      4364      4367      4368      4361      4364      4367      4369
      4361      4364      4367      4370      4362      4361      4364      4365
      4362      4361      4364      4366      4362      4361      4364      4367
      4363      4361      4364      4365      4363      4361      4364      4366
      4363      4361      4364      4367      4364      4367      4370      4371
      4364      4367      4370      4372      4364      4367      4370      4373
      4365      4364      4367      4368      4365      4364      4367      4369
      4365      4364      4367      4370      4366      4364      4367      4368
      4366      4364      4367      4369      4366      4364      4367      4370
      4367      4370      4373      4374      4367      4370      4373      4375
      4367      4370      4373      4376      4368      4367      4370      4371
      4368      4367      4370      4372      4368      4367      4370      4373
      4369      4367      4370      4371      4369      4367      4370      4372
      4369      4367      4370      4373      4371      4370      4373      4374
      4371      4370      4373      4375      4371      4370      4373      4376
      4372      4370      4373      4374      4372      4370      4373      4375
      4372      4370      4373      4376      4377      4381      4384      4385
      4377      4381      4384      4386      4377      4381      4384      4390
      4378      4377      4381      4382      4378      4377      4381      4383
      4378      4377      4381      4384      4379      4377      4381      4382
      4379      4377      4381      4383      4379      4377      4381      4384
      4380      4377      4381      4382      4380      4377      4381      4383
      4380      4377      4381      4384      4381      4384      4390      4387
      4382      4381      4384      4385      4382      4381      4384      4386
      4382      4381      4384      4390      4383      4381      4384      4385
      4383      4381      4384      4386      4383      4381      4384      4390
      4384      4390      4387      4388      4384      4390      4387      4389
      4384      4390      4387      4391      4385      4384      4390      4387
      4386      4384      4390      4387      4387      4391      4392      4393
      4387      4391      4392      4394      4387      4391      4392      4395
      4388      4387      4391      4392      4389      4387      4391      4392
      4390      4387      4391      4392      4391      4392      4395      4396
      4391      4392      4395      4397      4391      4392      4395      4403
      4392      4395      4397      4398      4392      4395      4403      4404
      4392      4395      4403      4405      4392      4395      4403      4406
      4393      4392      4395      4396      4393      4392      4395      4397
      4393      4392      4395      4403      4394      4392      4395      4396
      4394      4392      4395      4397      4394      4392      4395      4403
      4395      4397      4398      4399      4395      4397      4398      4400
      4395      4403      4406      4407      4396      4395      4397      4398
      4396      4395      4403      4404      4396      4395      4403      4405
      4396      4395      4403      4406      4397      4395      4403      4404
      4397      4395      4403      4405      4397      4395      4403      4406
      4397      4398      4400      4401      4397      4398      4400      4402
      4397      4398      4400      4412      4398      4397      4395      4403
      4398      4400      4412      4413      4398      4400      4412      4414
      4398      4400      4412      4415      4399      4398      4400      4401
      4399      4398      4400      4402      4399      4398      4400      4412
      4400      4412      4415      4416      4400      4412      4415      4417
      4400      4412      4415      4418      4401      4400      4412      4413
      4401      4400      4412      4414      4401      4400      4412      4415
      4402      4400      4412      4413      4402      4400      4412      4414
      4402      4400      4412      4415      4403      4406      4407      4408
      4403      4406      4407      4409      4404      4403      4406      4407
      4405      4403      4406      4407      4406      4407      4409      4410
      4406      4407      4409      4411      4406      4407      4409      4459
      4407      4409      4459      4460      4407      4409      4459      4461
      4407      4409      4459      4462      4408      4407      4409      4410
      4408      4407      4409      4411      4408      4407      4409      4459
      4409      4459      4462      4463      4409      4459      4462      4464
      4409      4459      4462      4465      4410      4409      4459      4460
      4410      4409      4459      4461      4410      4409      4459      4462
      4411      4409      4459      4460      4411      4409      4459      4461
      4411      4409      4459      4462      4412      4415      4418      4419
      4412      4415      4418      4420      4413      4412      4415      4416
      4413      4412      4415      4417      4413      4412      4415      4418
      4414      4412      4415      4416      4414      4412      4415      4417
      4414      4412      4415      4418      4415      4418      4420      4421
      4415      4418      4420      4422      4416      4415      4418      4419
      4416      4415      4418      4420      4417      4415      4418      4419
      4417      4415      4418      4420      4418      4420      4422      4423
      4418      4420      4422      4424      4418      4420      4422      4425
      4419      4418      4420      4421      4419      4418      4420      4422
      4420      4422      4425      4426      4420      4422      4425      4427
      4421      4420      4422      4423      4421      4420      4422      4424
      4421      4420      4422      4425      4422      4425      4427      4428
      4422      4425      4427      4429      4423      4422      4425      4426
      4423      4422      4425      4427      4424      4422      4425      4426
      4424      4422      4425      4427      4425      4427      4429      4430
      4425      4427      4429      4431      4425      4427      4429      4432
      4426      4425      4427      4428      4426      4425      4427      4429
      4427      4429      4432      4433      4427      4429      4432      4434
      4428      4427      4429      4430      4428      4427      4429      4431
      4428      4427      4429      4432      4429      4432      4434      4435
      4429      4432      4434      4436      4430      4429      4432      4433
      4430      4429      4432      4434      4431      4429      4432      4433
      4431      4429      4432      4434      4432      4434      4436      4437
      4432      4434      4436      4438      4432      4434      4436      4439
      4433      4432      4434      4435      4433      4432      4434      4436
      4434      4436      4439      4440      4434      4436      4439      4441
      4435      4434      4436      4437      4435      4434      4436      4438
      4435      4434      4436      4439      4436      4439      4441      4442
      4436      4439      4441      4443      4437      4436      4439      4440
      4437      4436      4439      4441      4438      4436      4439      4440
      4438      4436      4439      4441      4439      4441      4443      4444
      4439      4441      4443      4445      4439      4441      4443      4446
      4440      4439      4441      4442      4440      4439      4441      4443
      4441      4443      4446      4447      4441      4443      4446      4448
      4441      4443      4446      4449      4442      4441      4443      4444
      4442      4441      4443      4445      4442      4441      4443      4446
      4443      4446      4449      4450      4443      4446      4449      4451
      4443      4446      4449      4452      4444      4443      4446      4447
      4444      4443      4446      4448      4444      4443      4446      4449
      4445      4443      4446      4447      4445      4443      4446      4448
      4445      4443      4446      4449      4446      4449      4452      4453
      4446      4449      4452      4454      4446      4449      4452      4455
      4447      4446      4449      4450      4447      4446      4449      4451
      4447      4446      4449      4452      4448      4446      4449      4450
      4448      4446      4449      4451      4448      4446      4449      4452
      4449      4452      4455      4456      4449      4452      4455      4457
      4449      4452      4455      4458      4450      4449      4452      4453
      4450      4449      4452      4454      4450      4449      4452      4455
      4451      4449      4452      4453      4451      4449      4452      4454
      4451      4449      4452      4455      4453      4452      4455      4456
      4453      4452      4455      4457      4453      4452      4455      4458
      4454      4452      4455      4456      4454      4452      4455      4457
      4454      4452      4455      4458      4459      4462      4465      4466
      4459      4462      4465      4467      4459      4462      4465      4468
      4460      4459      4462      4463      4460      4459      4462      4464
      4460      4459      4462      4465      4461      4459      4462      4463
      4461      4459      4462      4464      4461      4459      4462      4465
      4462      4465      4468      4469      4462      4465      4468      4470
      4462      4465      4468      4471      4463      4462      4465      4466
      4463      4462      4465      4467      4463      4462      4465      4468
      4464      4462      4465      4466      4464      4462      4465      4467
      4464      4462      4465      4468      4465      4468      4471      4472
      4465      4468      4471      4473      4465      4468      4471      4474
      4466      4465      4468      4469      4466      4465      4468      4470
      4466      4465      4468      4471      4467      4465      4468      4469
      4467      4465      4468      4470      4467      4465      4468      4471
      4468      4471      4474      4475      4468      4471      4474      4476
      4468      4471      4474      4477      4469      4468      4471      4472
      4469      4468      4471      4473      4469      4468      4471      4474
      4470      4468      4471      4472      4470      4468      4471      4473
      4470      4468      4471      4474      4471      4474      4477      4478
      4471      4474      4477      4479      4471      4474      4477      4480
      4472      4471      4474      4475      4472      4471      4474      4476
      4472      4471      4474      4477      4473      4471      4474      4475
      4473      4471      4474      4476      4473      4471      4474      4477
      4474      4477      4480      4481      4474      4477      4480      4482
      4474      4477      4480      4483      4475      4474      4477      4478
      4475      4474      4477      4479      4475      4474      4477      4480
      4476      4474      4477      4478      4476      4474      4477      4479
      4476      4474      4477      4480      4477      4480      4483      4484
      4477      4480      4483      4485      4477      4480      4483      4486
      4478      4477      4480      4481      4478      4477      4480      4482
      4478      4477      4480      4483      4479      4477      4480      4481
      4479      4477      4480      4482      4479      4477      4480      4483
      4480      4483      4486      4487      4480      4483      4486      4488
      4480      4483      4486      4489      4481      4480      4483      4484
      4481      4480      4483      4485      4481      4480      4483      4486
      4482      4480      4483      4484      4482      4480      4483      4485
      4482      4480      4483      4486      4483      4486      4489      4490
      4483      4486      4489      4491      4483      4486      4489      4492
      4484      4483      4486      4487      4484      4483      4486      4488
      4484      4483      4486      4489      4485      4483      4486      4487
      4485      4483      4486      4488      4485      4483      4486      4489
      4486      4489      4492      4493      4486      4489      4492      4494
      4486      4489      4492      4495      4487      4486      4489      4490
      4487      4486      4489      4491      4487      4486      4489      4492
      4488      4486      4489      4490      4488      4486      4489      4491
      4488      4486      4489      4492      4489      4492      4495      4496
      4489      4492      4495      4497      4489      4492      4495      4498
      4490      4489      4492      4493      4490      4489      4492      4494
      4490      4489      4492      4495      4491      4489      4492      4493
      4491      4489      4492      4494      4491      4489      4492      4495
      4492      4495      4498      4499      4492      4495      4498      4500
      4492      4495      4498      4501      4493      4492      4495      4496
      4493      4492      4495      4497      4493      4492      4495      4498
      4494      4492      4495      4496      4494      4492      4495      4497
      4494      4492      4495      4498      4495      4498      4501      4502
      4495      4498      4501      4503      4495      4498      4501      4504
      4496      4495      4498      4499      4496      4495      4498      4500
      4496      4495      4498      4501      4497      4495      4498      4499
      4497      4495      4498      4500      4497      4495      4498      4501
      4498      4501      4504      4505      4498      4501      4504      4506
      4498      4501      4504      4507      4499      4498      4501      4502
      4499      4498      4501      4503      4499      4498      4501      4504
      4500      4498      4501      4502      4500      4498      4501      4503
      4500      4498      4501      4504      4502      4501      4504      4505
      4502      4501      4504      4506      4502      4501      4504      4507
      4503      4501      4504      4505      4503      4501      4504      4506
      4503      4501      4504      4507      4508      4512      4515      4516
      4508      4512      4515      4517      4508      4512      4515      4521
      4509      4508      4512      4513      4509      4508      4512      4514
      4509      4508      4512      4515      4510      4508      4512      4513
      4510      4508      4512      4514      4510      4508      4512      4515
      4511      4508      4512      4513      4511      4508      4512      4514
      4511      4508      4512      4515      4512      4515      4521      4518
      4513      4512      4515      4516      4513      4512      4515      4517
      4513      4512      4515      4521      4514      4512      4515      4516
      4514      4512      4515      4517      4514      4512      4515      4521
      4515      4521      4518      4519      4515      4521      4518      4520
      4515      4521      4518      4522      4516      4515      4521      4518
      4517      4515      4521      4518      4518      4522      4523      4524
      4518      4522      4523      4525      4518      4522      4523      4526
      4519      4518      4522      4523      4520      4518      4522      4523
      4521      4518      4522      4523      4522      4523      4526      4527
      4522      4523      4526      4528      4522      4523      4526      4534
      4523      4526      4528      4529      4523      4526      4534      4535
      4523      4526      4534      4536      4523      4526      4534      4537
      4524      4523      4526      4527      4524      4523      4526      4528
      4524      4523      4526      4534      4525      4523      4526      4527
      4525      4523      4526      4528      4525      4523      4526      4534
      4526      4528      4529      4530      4526      4528      4529      4531
      4526      4534      4537      4538      4527      4526      4528      4529
      4527      4526      4534      4535      4527      4526      4534      4536
      4527      4526      4534      4537      4528      4526      4534      4535
      4528      4526      4534      4536      4528      4526      4534      4537
      4528      4529      4531      4532      4528      4529      4531      4533
      4528      4529      4531      4543      4529      4528      4526      4534
      4529      4531      4543      4544      4529      4531      4543      4545
      4529      4531      4543      4546      4530      4529      4531      4532
      4530      4529      4531      4533      4530      4529      4531      4543
      4531      4543      4546      4547      4531      4543      4546      4548
      4531      4543      4546      4549      4532      4531      4543      4544
      4532      4531      4543      4545      4532      4531      4543      4546
      4533      4531      4543      4544      4533      4531      4543      4545
      4533      4531      4543      4546      4534      4537      4538      4539
      4534      4537      4538      4540      4535      4534      4537      4538
      4536      4534      4537      4538      4537      4538      4540      4541
      4537      4538      4540      4542      4537      4538      4540      4590
      4538      4540      4590      4591      4538      4540      4590      4592
      4538      4540      4590      4593      4539      4538      4540      4541
      4539      4538      4540      4542      4539      4538      4540      4590
      4540      4590      4593      4594      4540      4590      4593      4595
      4540      4590      4593      4596      4541      4540      4590      4591
      4541      4540      4590      4592      4541      4540      4590      4593
      4542      4540      4590      4591      4542      4540      4590      4592
      4542      4540      4590      4593      4543      4546      4549      4550
      4543      4546      4549      4551      4544      4543      4546      4547
      4544      4543      4546      4548      4544      4543      4546      4549
      4545      4543      4546      4547      4545      4543      4546      4548
      4545      4543      4546      4549      4546      4549      4551      4552
      4546      4549      4551      4553      4547      4546      4549      4550
      4547      4546      4549      4551      4548      4546      4549      4550
      4548      4546      4549      4551      4549      4551      4553      4554
      4549      4551      4553      4555      4549      4551      4553      4556
      4550      4549      4551      4552      4550      4549      4551      4553
      4551      4553      4556      4557      4551      4553      4556      4558
      4552      4551      4553      4554      4552      4551      4553      4555
      4552      4551      4553      4556      4553      4556      4558      4559
      4553      4556      4558      4560      4554      4553      4556      4557
      4554      4553      4556      4558      4555      4553      4556      4557
      4555      4553      4556      4558      4556      4558      4560      4561
      4556      4558      4560      4562      4556      4558      4560      4563
      4557      4556      4558      4559      4557      4556      4558      4560
      4558      4560      4563      4564      4558      4560      4563      4565
      4559      4558      4560      4561      4559      4558      4560      4562
      4559      4558      4560      4563      4560      4563      4565      4566
      4560      4563      4565      4567      4561      4560      4563      4564
      4561      4560      4563      4565      4562      4560      4563      4564
      4562      4560      4563      4565      4563      4565      4567      4568
      4563      4565      4567      4569      4563      4565      4567      4570
      4564      4563      4565      4566      4564      4563      4565      4567
      4565      4567      4570      4571      4565      4567      4570      4572
      4566      4565      4567      4568      4566      4565      4567      4569
      4566      4565      4567      4570      4567      4570      4572      4573
      4567      4570      4572      4574      4568      4567      4570      4571
      4568      4567      4570      4572      4569      4567      4570      4571
      4569      4567      4570      4572      4570      4572      4574      4575
      4570      4572      4574      4576      4570      4572      4574      4577
      4571      4570      4572      4573      4571      4570      4572      4574
      4572      4574      4577      4578      4572      4574      4577      4579
      4572      4574      4577      4580      4573      4572      4574      4575
      4573      4572      4574      4576      4573      4572      4574      4577
      4574      4577      4580      4581      4574      4577      4580      4582
      4574      4577      4580      4583      4575      4574      4577      4578
      4575      4574      4577      4579      4575      4574      4577      4580
      4576      4574      4577      4578      4576      4574      4577      4579
      4576      4574      4577      4580      4577      4580      4583      4584
      4577      4580      4583      4585      4577      4580      4583      4586
      4578      4577      4580      4581      4578      4577      4580      4582
      4578      4577      4580      4583      4579      4577      4580      4581
      4579      4577      4580      4582      4579      4577      4580      4583
      4580      4583      4586      4587      4580      4583      4586      4588
      4580      4583      4586      4589      4581      4580      4583      4584
      4581      4580      4583      4585      4581      4580      4583      4586
      4582      4580      4583      4584      4582      4580      4583      4585
      4582      4580      4583      4586      4584      4583      4586      4587
      4584      4583      4586      4588      4584      4583      4586      4589
      4585      4583      4586      4587      4585      4583      4586      4588
      4585      4583      4586      4589      4590      4593      4596      4597
      4590      4593      4596      4598      4590      4593      4596      4599
      4591      4590      4593      4594      4591      4590      4593      4595
      4591      4590      4593      4596      4592      4590      4593      4594
      4592      4590      4593      4595      4592      4590      4593      4596
      4593      4596      4599      4600      4593      4596      4599      4601
      4593      4596      4599      4602      4594      4593      4596      4597
      4594      4593      4596      4598      4594      4593      4596      4599
      4595      4593      4596      4597      4595      4593      4596      4598
      4595      4593      4596      4599      4596      4599      4602      4603
      4596      4599      4602      4604      4596      4599      4602      4605
      4597      4596      4599      4600      4597      4596      4599      4601
      4597      4596      4599      4602      4598      4596      4599      4600
      4598      4596      4599      4601      4598      4596      4599      4602
      4599      4602      4605      4606      4599      4602      4605      4607
      4599      4602      4605      4608      4600      4599      4602      4603
      4600      4599      4602      4604      4600      4599      4602      4605
      4601      4599      4602      4603      4601      4599      4602      4604
      4601      4599      4602      4605      4602      4605      4608      4609
      4602      4605      4608      4610      4602      4605      4608      4611
      4603      4602      4605      4606      4603      4602      4605      4607
      4603      4602      4605      4608      4604      4602      4605      4606
      4604      4602      4605      4607      4604      4602      4605      4608
      4605      4608      4611      4612      4605      4608      4611      4613
      4605      4608      4611      4614      4606      4605      4608      4609
      4606      4605      4608      4610      4606      4605      4608      4611
      4607      4605      4608      4609      4607      4605      4608      4610
      4607      4605      4608      4611      4608      4611      4614      4615
      4608      4611      4614      4616      4608      4611      4614      4617
      4609      4608      4611      4612      4609      4608      4611      4613
      4609      4608      4611      4614      4610      4608      4611      4612
      4610      4608      4611      4613      4610      4608      4611      4614
      4611      4614      4617      4618      4611      4614      4617      4619
      4611      4614      4617      4620      4612      4611      4614      4615
      4612      4611      4614      4616      4612      4611      4614      4617
      4613      4611      4614      4615      4613      4611      4614      4616
      4613      4611      4614      4617      4614      4617      4620      4621
      4614      4617      4620      4622      4614      4617      4620      4623
      4615      4614      4617      4618      4615      4614      4617      4619
      4615      4614      4617      4620      4616      4614      4617      4618
      4616      4614      4617      4619      4616      4614      4617      4620
      4617      4620      4623      4624      4617      4620      4623      4625
      4617      4620      4623      4626      4618      4617      4620      4621
      4618      4617      4620      4622      4618      4617      4620      4623
      4619      4617      4620      4621      4619      4617      4620      4622
      4619      4617      4620      4623      4620      4623      4626      4627
      4620      4623      4626      4628      4620      4623      4626      4629
      4621      4620      4623      4624      4621      4620      4623      4625
      4621      4620      4623      4626      4622      4620      4623      4624
      4622      4620      4623      4625      4622      4620      4623      4626
      4623      4626      4629      4630      4623      4626      4629      4631
      4623      4626      4629      4632      4624      4623      4626      4627
      4624      4623      4626      4628      4624      4623      4626      4629
      4625      4623      4626      4627      4625      4623      4626      4628
      4625      4623      4626      4629      4626      4629      4632      4633
      4626      4629      4632      4634      4626      4629      4632      4635
      4627      4626      4629      4630      4627      4626      4629      4631
      4627      4626      4629      4632      4628      4626      4629      4630
      4628      4626      4629      4631      4628      4626      4629      4632
      4629      4632      4635      4636      4629      4632      4635      4637
      4629      4632      4635      4638      4630      4629      4632      4633
      4630      4629      4632      4634      4630      4629      4632      4635
      4631      4629      4632      4633      4631      4629      4632      4634
      4631      4629      4632      4635      4633      4632      4635      4636
      4633      4632      4635      4637      4633      4632      4635      4638
      4634      4632      4635      4636      4634      4632      4635      4637
      4634      4632      4635      4638      4639      4643      4646      4647
      4639      4643      4646      4677      4639      4685      4682      4677
      4639      4685      4682      4683      4639      4685      4682      4684
      4640      4639      4641      4642      4640      4639      4643      4644
      4640      4639      4643      4645      4640      4639      4643      4646
      4640      4639      4685      4682      4640      4639      4685      4686
      4640      4639      4685      4687      4641      4639      4643      4644
      4641      4639      4643      4645      4641      4639      4643      4646
      4641      4639      4685      4682      4641      4639      4685      4686
      4641      4639      4685      4687      4642      4641      4639      4643
      4642      4641      4639      4685      4643      4639      4685      4682
      4643      4639      4685      4686      4643      4639      4685      4687
      4643      4646      4647      4648      4643      4646      4647      4649
      4643      4646      4677      4675      4643      4646      4677      4678
      4643      4646      4677      4682      4644      4643      4639      4685
      4644      4643      4646      4647      4644      4643      4646      4677
      4645      4643      4639      4685      4645      4643      4646      4647
      4645      4643      4646      4677      4646      4643      4639      4685
      4646      4647      4649      4650      4646      4647      4649      4651
      4646      4647      4649      4652      4646      4677      4675      4652
      4646      4677      4675      4672      4646      4677      4675      4676
      4646      4677      4678      4679      4646      4677      4678      4680
      4646      4677      4678      4681      4646      4677      4682      4683
      4646      4677      4682      4684      4646      4677      4682      4685
      4647      4646      4677      4675      4647      4646      4677      4678
      4647      4646      4677      4682      4647      4649      4652      4653
      4647      4649      4652      4654      4647      4649      4652      4675
      4648      4647      4646      4677      4648      4647      4649      4650
      4648      4647      4649      4651      4648      4647      4649      4652
      4649      4647      4646      4677      4649      4652      4654      4655
      4649      4652      4654      4656      4649      4652      4654      4664
      4649      4652      4675      4672      4649      4652      4675      4676
      4649      4652      4675      4677      4650      4649      4652      4653
      4650      4649      4652      4654      4650      4649      4652      4675
      4651      4649      4652      4653      4651      4649      4652      4654
      4651      4649      4652      4675      4652      4654      4656      4657
      4652      4654      4656      4658      4652      4654      4656      4659
      4652      4654      4664      4662      4652      4654      4664      4665
      4652      4654      4664      4669      4652      4675      4672      4669
      4652      4675      4672      4673      4652      4675      4672      4674
      4652      4675      4677      4678      4652      4675      4677      4682
      4653      4652      4654      4655      4653      4652      4654      4656
      4653      4652      4654      4664      4653      4652      4675      4672
      4653      4652      4675      4676      4653      4652      4675      4677
      4654      4652      4675      4672      4654      4652      4675      4676
      4654      4652      4675      4677      4654      4656      4659      4660
      4654      4656      4659      4661      4654      4656      4659      4662
      4654      4664      4662      4659      4654      4664      4662      4663
      4654      4664      4662      4688      4654      4664      4665      4666
      4654      4664      4665      4667      4654      4664      4665      4668
      4654      4664      4669      4670      4654      4664      4669      4671
      4654      4664      4669      4672      4655      4654      4652      4675
      4655      4654      4656      4657      4655      4654      4656      4658
      4655      4654      4656      4659      4655      4654      4664      4662
      4655      4654      4664      4665      4655      4654      4664      4669
      4656      4654      4652      4675      4656      4654      4664      4662
      4656      4654      4664      4665      4656      4654      4664      4669
      4656      4659      4662      4663      4656      4659      4662      4664
      4656      4659      4662      4688      4657      4656      4654      4664
      4657      4656      4659      4660      4657      4656      4659      4661
      4657      4656      4659      4662      4658      4656      4654      4664
      4658      4656      4659      4660      4658      4656      4659      4661
      4658      4656      4659      4662      4659      4656      4654      4664
      4659      4662      4664      4665      4659      4662      4664      4669
      4659      4662      4688      4689      4659      4662      4688      4690
      4659      4662      4688      4694      4660      4659      4662      4663
      4660      4659      4662      4664      4660      4659      4662      4688
      4661      4659      4662      4663      4661      4659      4662      4664
      4661      4659      4662      4688      4662      4664      4665      4666
      4662      4664      4665      4667      4662      4664      4665      4668
      4662      4664      4669      4670      4662      4664      4669      4671
      4662      4664      4669      4672      4662      4688      4690      4691
      4662      4688      4690      4692      4662      4688      4690      4693
      4662      4688      4694      4695      4662      4688      4694      4696
      4662      4688      4694      4697      4663      4662      4664      4665
      4663      4662      4664      4669      4663      4662      4688      4689
      4663      4662      4688      4690      4663      4662      4688      4694
      4664      4654      4652      4675      4664      4662      4688      4689
      4664      4662      4688      4690      4664      4662      4688      4694
      4664      4669      4672      4673      4664      4669      4672      4674
      4664      4669      4672      4675      4665      4664      4662      4688
      4665      4664      4669      4670      4665      4664      4669      4671
      4665      4664      4669      4672      4666      4665      4664      4669
      4667      4665      4664      4669      4668      4665      4664      4669
      4669      4664      4662      4688      4669      4672      4675      4676
      4669      4672      4675      4677      4670      4669      4672      4673
      4670      4669      4672      4674      4670      4669      4672      4675
      4671      4669      4672      4673      4671      4669      4672      4674
      4671      4669      4672      4675      4672      4675      4677      4678
      4672      4675      4677      4682      4673      4672      4675      4676
      4673      4672      4675      4677      4674      4672      4675      4676
      4674      4672      4675      4677      4675      4677      4678      4679
      4675      4677      4678      4680      4675      4677      4678      4681
      4675      4677      4682      4683      4675      4677      4682      4684
      4675      4677      4682      4685      4676      4675      4677      4678
      4676      4675      4677      4682      4677      4682      4685      4686
      4677      4682      4685      4687      4678      4677      4682      4683
      4678      4677      4682      4684      4678      4677      4682      4685
      4679      4678      4677      4682      4680      4678      4677      4682
      4681      4678      4677      4682      4683      4682      4685      4686
      4683      4682      4685      4687      4684      4682      4685      4686
      4684      4682      4685      4687      4688      4694      4697      4698
      4688      4694      4697      4699      4688      4694      4697      4700
      4689      4688      4690      4691      4689      4688      4690      4692
      4689      4688      4690      4693      4689      4688      4694      4695
      4689      4688      4694      4696      4689      4688      4694      4697
      4690      4688      4694      4695      4690      4688      4694      4696
      4690      4688      4694      4697      4691      4690      4688      4694
      4692      4690      4688      4694      4693      4690      4688      4694
      4694      4697      4700      4701      4694      4697      4700      4702
      4694      4697      4700      4703      4695      4694      4697      4698
      4695      4694      4697      4699      4695      4694      4697      4700
      4696      4694      4697      4698      4696      4694      4697      4699
      4696      4694      4697      4700      4697      4700      4703      4704
      4697      4700      4703      4705      4697      4700      4703      4709
      4698      4697      4700      4701      4698      4697      4700      4702
      4698      4697      4700      4703      4699      4697      4700      4701
      4699      4697      4700      4702      4699      4697      4700      4703
      4700      4703      4705      4706      4700      4703      4705      4707
      4700      4703      4705      4708      4700      4703      4709      4710
      4700      4703      4709      4711      4700      4703      4709      4712
      4701      4700      4703      4704      4701      4700      4703      4705
      4701      4700      4703      4709      4702      4700      4703      4704
      4702      4700      4703      4705      4702      4700      4703      4709
      4704      4703      4705      4706      4704      4703      4705      4707
      4704      4703      4705      4708      4704      4703      4709      4710
      4704      4703      4709      4711      4704      4703      4709      4712
      4705      4703      4709      4710      4705      4703      4709      4711
      4705      4703      4709      4712      4706      4705      4703      4709
      4707      4705      4703      4709      4708      4705      4703      4709
      4713      4717      4720      4721      4713      4717      4720      4722
      4713      4717      4720      4726      4714      4713      4717      4718
      4714      4713      4717      4719      4714      4713      4717      4720
      4715      4713      4717      4718      4715      4713      4717      4719
      4715      4713      4717      4720      4716      4713      4717      4718
      4716      4713      4717      4719      4716      4713      4717      4720
      4717      4720      4726      4723      4718      4717      4720      4721
      4718      4717      4720      4722      4718      4717      4720      4726
      4719      4717      4720      4721      4719      4717      4720      4722
      4719      4717      4720      4726      4720      4726      4723      4724
      4720      4726      4723      4725      4720      4726      4723      4727
      4721      4720      4726      4723      4722      4720      4726      4723
      4723      4727      4728      4729      4723      4727      4728      4730
      4723      4727      4728      4731      4724      4723      4727      4728
      4725      4723      4727      4728      4726      4723      4727      4728
      4727      4728      4731      4732      4727      4728      4731      4733
      4727      4728      4731      4739      4728      4731      4733      4734
      4728      4731      4739      4740      4728      4731      4739      4741
      4728      4731      4739      4742      4729      4728      4731      4732
      4729      4728      4731      4733      4729      4728      4731      4739
      4730      4728      4731      4732      4730      4728      4731      4733
      4730      4728      4731      4739      4731      4733      4734      4735
      4731      4733      4734      4736      4731      4739      4742      4743
      4732      4731      4733      4734      4732      4731      4739      4740
      4732      4731      4739      4741      4732      4731      4739      4742
      4733      4731      4739      4740      4733      4731      4739      4741
      4733      4731      4739      4742      4733      4734      4736      4737
      4733      4734      4736      4738      4733      4734      4736      4748
      4734      4733      4731      4739      4734      4736      4748      4749
      4734      4736      4748      4750      4734      4736      4748      4751
      4735      4734      4736      4737      4735      4734      4736      4738
      4735      4734      4736      4748      4736      4748      4751      4752
      4736      4748      4751      4753      4736      4748      4751      4754
      4737      4736      4748      4749      4737      4736      4748      4750
      4737      4736      4748      4751      4738      4736      4748      4749
      4738      4736      4748      4750      4738      4736      4748      4751
      4739      4742      4743      4744      4739      4742      4743      4745
      4740      4739      4742      4743      4741      4739      4742      4743
      4742      4743      4745      4746      4742      4743      4745      4747
      4742      4743      4745      4795      4743      4745      4795      4796
      4743      4745      4795      4797      4743      4745      4795      4798
      4744      4743      4745      4746      4744      4743      4745      4747
      4744      4743      4745      4795      4745      4795      4798      4799
      4745      4795      4798      4800      4745      4795      4798      4801
      4746      4745      4795      4796      4746      4745      4795      4797
      4746      4745      4795      4798      4747      4745      4795      4796
      4747      4745      4795      4797      4747      4745      4795      4798
      4748      4751      4754      4755      4748      4751      4754      4756
      4749      4748      4751      4752      4749      4748      4751      4753
      4749      4748      4751      4754      4750      4748      4751      4752
      4750      4748      4751      4753      4750      4748      4751      4754
      4751      4754      4756      4757      4751      4754      4756      4758
      4752      4751      4754      4755      4752      4751      4754      4756
      4753      4751      4754      4755      4753      4751      4754      4756
      4754      4756      4758      4759      4754      4756      4758      4760
      4754      4756      4758      4761      4755      4754      4756      4757
      4755      4754      4756      4758      4756      4758      4761      4762
      4756      4758      4761      4763      4757      4756      4758      4759
      4757      4756      4758      4760      4757      4756      4758      4761
      4758      4761      4763      4764      4758      4761      4763      4765
      4759      4758      4761      4762      4759      4758      4761      4763
      4760      4758      4761      4762      4760      4758      4761      4763
      4761      4763      4765      4766      4761      4763      4765      4767
      4761      4763      4765      4768      4762      4761      4763      4764
      4762      4761      4763      4765      4763      4765      4768      4769
      4763      4765      4768      4770      4764      4763      4765      4766
      4764      4763      4765      4767      4764      4763      4765      4768
      4765      4768      4770      4771      4765      4768      4770      4772
      4766      4765      4768      4769      4766      4765      4768      4770
      4767      4765      4768      4769      4767      4765      4768      4770
      4768      4770      4772      4773      4768      4770      4772      4774
      4768      4770      4772      4775      4769      4768      4770      4771
      4769      4768      4770      4772      4770      4772      4775      4776
      4770      4772      4775      4777      4771      4770      4772      4773
      4771      4770      4772      4774      4771      4770      4772      4775
      4772      4775      4777      4778      4772      4775      4777      4779
      4773      4772      4775      4776      4773      4772      4775      4777
      4774      4772      4775      4776      4774      4772      4775      4777
      4775      4777      4779      4780      4775      4777      4779      4781
      4775      4777      4779      4782      4776      4775      4777      4778
      4776      4775      4777      4779      4777      4779      4782      4783
      4777      4779      4782      4784      4777      4779      4782      4785
      4778      4777      4779      4780      4778      4777      4779      4781
      4778      4777      4779      4782      4779      4782      4785      4786
      4779      4782      4785      4787      4779      4782      4785      4788
      4780      4779      4782      4783      4780      4779      4782      4784
      4780      4779      4782      4785      4781      4779      4782      4783
      4781      4779      4782      4784      4781      4779      4782      4785
      4782      4785      4788      4789      4782      4785      4788      4790
      4782      4785      4788      4791      4783      4782      4785      4786
      4783      4782      4785      4787      4783      4782      4785      4788
      4784      4782      4785      4786      4784      4782      4785      4787
      4784      4782      4785      4788      4785      4788      4791      4792
      4785      4788      4791      4793      4785      4788      4791      4794
      4786      4785      4788      4789      4786      4785      4788      4790
      4786      4785      4788      4791      4787      4785      4788      4789
      4787      4785      4788      4790      4787      4785      4788      4791
      4789      4788      4791      4792      4789      4788      4791      4793
      4789      4788      4791      4794      4790      4788      4791      4792
      4790      4788      4791      4793      4790      4788      4791      4794
      4795      4798      4801      4802      4795      4798      4801      4803
      4795      4798      4801      4804      4796      4795      4798      4799
      4796      4795      4798      4800      4796      4795      4798      4801
      4797      4795      4798      4799      4797      4795      4798      4800
      4797      4795      4798      4801      4798      4801      4804      4805
      4798      4801      4804      4806      4798      4801      4804      4807
      4799      4798      4801      4802      4799      4798      4801      4803
      4799      4798      4801      4804      4800      4798      4801      4802
      4800      4798      4801      4803      4800      4798      4801      4804
      4801      4804      4807      4808      4801      4804      4807      4809
      4801      4804      4807      4810      4802      4801      4804      4805
      4802      4801      4804      4806      4802      4801      4804      4807
      4803      4801      4804      4805      4803      4801      4804      4806
      4803      4801      4804      4807      4804      4807      4810      4811
      4804      4807      4810      4812      4804      4807      4810      4813
      4805      4804      4807      4808      4805      4804      4807      4809
      4805      4804      4807      4810      4806      4804      4807      4808
      4806      4804      4807      4809      4806      4804      4807      4810
      4807      4810      4813      4814      4807      4810      4813      4815
      4807      4810      4813      4816      4808      4807      4810      4811
      4808      4807      4810      4812      4808      4807      4810      4813
      4809      4807      4810      4811      4809      4807      4810      4812
      4809      4807      4810      4813      4810      4813      4816      4817
      4810      4813      4816      4818      4810      4813      4816      4819
      4811      4810      4813      4814      4811      4810      4813      4815
      4811      4810      4813      4816      4812      4810      4813      4814
      4812      4810      4813      4815      4812      4810      4813      4816
      4813      4816      4819      4820      4813      4816      4819      4821
      4813      4816      4819      4822      4814      4813      4816      4817
      4814      4813      4816      4818      4814      4813      4816      4819
      4815      4813      4816      4817      4815      4813      4816      4818
      4815      4813      4816      4819      4816      4819      4822      4823
      4816      4819      4822      4824      4816      4819      4822      4825
      4817      4816      4819      4820      4817      4816      4819      4821
      4817      4816      4819      4822      4818      4816      4819      4820
      4818      4816      4819      4821      4818      4816      4819      4822
      4819      4822      4825      4826      4819      4822      4825      4827
      4819      4822      4825      4828      4820      4819      4822      4823
      4820      4819      4822      4824      4820      4819      4822      4825
      4821      4819      4822      4823      4821      4819      4822      4824
      4821      4819      4822      4825      4822      4825      4828      4829
      4822      4825      4828      4830      4822      4825      4828      4831
      4823      4822      4825      4826      4823      4822      4825      4827
      4823      4822      4825      4828      4824      4822      4825      4826
      4824      4822      4825      4827      4824      4822      4825      4828
      4825      4828      4831      4832      4825      4828      4831      4833
      4825      4828      4831      4834      4826      4825      4828      4829
      4826      4825      4828      4830      4826      4825      4828      4831
      4827      4825      4828      4829      4827      4825      4828      4830
      4827      4825      4828      4831      4828      4831      4834      4835
      4828      4831      4834      4836      4828      4831      4834      4837
      4829      4828      4831      4832      4829      4828      4831      4833
      4829      4828      4831      4834      4830      4828      4831      4832
      4830      4828      4831      4833      4830      4828      4831      4834
      4831      4834      4837      4838      4831      4834      4837      4839
      4831      4834      4837      4840      4832      4831      4834      4835
      4832      4831      4834      4836      4832      4831      4834      4837
      4833      4831      4834      4835      4833      4831      4834      4836
      4833      4831      4834      4837      4834      4837      4840      4841
      4834      4837      4840      4842      4834      4837      4840      4843
      4835      4834      4837      4838      4835      4834      4837      4839
      4835      4834      4837      4840      4836      4834      4837      4838
      4836      4834      4837      4839      4836      4834      4837      4840
      4838      4837      4840      4841      4838      4837      4840      4842
      4838      4837      4840      4843      4839      4837      4840      4841
      4839      4837      4840      4842      4839      4837      4840      4843
      4844      4857      4860      4861      4844      4857      4860      4862
      4844      4857      4860      4867      4845      4844      4849      4850
      4845      4844      4849      4851      4845      4844      4849      4852
      4845      4844      4853      4854      4845      4844      4853      4855
      4845      4844      4853      4856      4845      4844      4857      4858
      4845      4844      4857      4859      4845      4844      4857      4860
      4846      4845      4844      4849      4846      4845      4844      4853
      4846      4845      4844      4857      4847      4845      4844      4849
      4847      4845      4844      4853      4847      4845      4844      4857
      4848      4845      4844      4849      4848      4845      4844      4853
      4848      4845      4844      4857      4849      4844      4853      4854
      4849      4844      4853      4855      4849      4844      4853      4856
      4849      4844      4857      4858      4849      4844      4857      4859
      4849      4844      4857      4860      4850      4849      4844      4853
      4850      4849      4844      4857      4851      4849      4844      4853
      4851      4849      4844      4857      4852      4849      4844      4853
      4852      4849      4844      4857      4853      4844      4857      4858
      4853      4844      4857      4859      4853      4844      4857      4860
      4854      4853      4844      4857      4855      4853      4844      4857
      4856      4853      4844      4857      4857      4860      4867      4863
      4858      4857      4860      4861      4858      4857      4860      4862
      4858      4857      4860      4867      4859      4857      4860      4861
      4859      4857      4860      4862      4859      4857      4860      4867
      4860      4867      4863      4864      4860      4867      4863      4865
      4860      4867      4863      4866      4861      4860      4867      4863
      4862      4860      4867      4863      4863      4866      4868      4869
      4863      4866      4868      4870      4863      4866      4868      4873
      4864      4863      4866      4868      4865      4863      4866      4868
      4866      4868      4873      4871      4866      4868      4873      4874
      4866      4868      4873      4875      4867      4863      4866      4868
      4868      4873      4871      4872      4868      4873      4871      4923
      4868      4873      4875      4876      4868      4873      4875      4877
      4868      4873      4875      4879      4869      4868      4873      4871
      4869      4868      4873      4874      4869      4868      4873      4875
      4870      4868      4873      4871      4870      4868      4873      4874
      4870      4868      4873      4875      4871      4873      4875      4876
      4871      4873      4875      4877      4871      4873      4875      4879
      4871      4923      4925      4926      4871      4923      4925      4927
      4871      4923      4925      4928      4872      4871      4873      4874
      4872      4871      4873      4875      4872      4871      4923      4924
      4872      4871      4923      4925      4873      4871      4923      4924
      4873      4871      4923      4925      4873      4875      4877      4878
      4873      4875      4879      4880      4873      4875      4879      4881
      4874      4873      4871      4923      4874      4873      4875      4876
      4874      4873      4875      4877      4874      4873      4875      4879
      4875      4873      4871      4923      4875      4879      4881      4882
      4875      4879      4881      4883      4876      4875      4877      4878
      4876      4875      4879      4880      4876      4875      4879      4881
      4877      4875      4879      4880      4877      4875      4879      4881
      4878      4877      4875      4879      4879      4881      4883      4884
      4879      4881      4883      4885      4879      4881      4883      4886
      4880      4879      4881      4882      4880      4879      4881      4883
      4881      4883      4886      4887      4881      4883      4886      4888
      4881      4883      4886      4889      4882      4881      4883      4884
      4882      4881      4883      4885      4882      4881      4883      4886
      4883      4886      4889      4890      4883      4886      4889      4891
      4883      4886      4889      4892      4884      4883      4886      4887
      4884      4883      4886      4888      4884      4883      4886      4889
      4885      4883      4886      4887      4885      4883      4886      4888
      4885      4883      4886      4889      4886      4889      4892      4893
      4886      4889      4892      4894      4886      4889      4892      4895
      4887      4886      4889      4890      4887      4886      4889      4891
      4887      4886      4889      4892      4888      4886      4889      4890
      4888      4886      4889      4891      4888      4886      4889      4892
      4889      4892      4895      4896      4889      4892      4895      4897
      4889      4892      4895      4898      4890      4889      4892      4893
      4890      4889      4892      4894      4890      4889      4892      4895
      4891      4889      4892      4893      4891      4889      4892      4894
      4891      4889      4892      4895      4892      4895      4898      4899
      4892      4895      4898      4900      4892      4895      4898      4901
      4893      4892      4895      4896      4893      4892      4895      4897
      4893      4892      4895      4898      4894      4892      4895      4896
      4894      4892      4895      4897      4894      4892      4895      4898
      4895      4898      4901      4902      4895      4898      4901      4903
      4895      4898      4901      4904      4896      4895      4898      4899
      4896      4895      4898      4900      4896      4895      4898      4901
      4897      4895      4898      4899      4897      4895      4898      4900
      4897      4895      4898      4901      4898      4901      4904      4905
      4898      4901      4904      4906      4898      4901      4904      4907
      4899      4898      4901      4902      4899      4898      4901      4903
      4899      4898      4901      4904      4900      4898      4901      4902
      4900      4898      4901      4903      4900      4898      4901      4904
      4901      4904      4907      4908      4901      4904      4907      4909
      4901      4904      4907      4910      4902      4901      4904      4905
      4902      4901      4904      4906      4902      4901      4904      4907
      4903      4901      4904      4905      4903      4901      4904      4906
      4903      4901      4904      4907      4904      4907      4910      4911
      4904      4907      4910      4912      4904      4907      4910      4913
      4905      4904      4907      4908      4905      4904      4907      4909
      4905      4904      4907      4910      4906      4904      4907      4908
      4906      4904      4907      4909      4906      4904      4907      4910
      4907      4910      4913      4914      4907      4910      4913      4915
      4907      4910      4913      4916      4908      4907      4910      4911
      4908      4907      4910      4912      4908      4907      4910      4913
      4909      4907      4910      4911      4909      4907      4910      4912
      4909      4907      4910      4913      4910      4913      4916      4917
      4910      4913      4916      4918      4910      4913      4916      4919
      4911      4910      4913      4914      4911      4910      4913      4915
      4911      4910      4913      4916      4912      4910      4913      4914
      4912      4910      4913      4915      4912      4910      4913      4916
      4913      4916      4919      4920      4913      4916      4919      4921
      4913      4916      4919      4922      4914      4913      4916      4917
      4914      4913      4916      4918      4914      4913      4916      4919
      4915      4913      4916      4917      4915      4913      4916      4918
      4915      4913      4916      4919      4917      4916      4919      4920
      4917      4916      4919      4921      4917      4916      4919      4922
      4918      4916      4919      4920      4918      4916      4919      4921
      4918      4916      4919      4922      4923      4925      4928      4929
      4923      4925      4928      4930      4923      4925      4928      4931
      4924      4923      4925      4926      4924      4923      4925      4927
      4924      4923      4925      4928      4925      4928      4931      4932
      4925      4928      4931      4933      4925      4928      4931      4934
      4926      4925      4928      4929      4926      4925      4928      4930
      4926      4925      4928      4931      4927      4925      4928      4929
      4927      4925      4928      4930      4927      4925      4928      4931
      4928      4931      4934      4935      4928      4931      4934      4936
      4928      4931      4934      4937      4929      4928      4931      4932
      4929      4928      4931      4933      4929      4928      4931      4934
      4930      4928      4931      4932      4930      4928      4931      4933
      4930      4928      4931      4934      4931      4934      4937      4938
      4931      4934      4937      4939      4931      4934      4937      4940
      4932      4931      4934      4935      4932      4931      4934      4936
      4932      4931      4934      4937      4933      4931      4934      4935
      4933      4931      4934      4936      4933      4931      4934      4937
      4934      4937      4940      4941      4934      4937      4940      4942
      4934      4937      4940      4943      4935      4934      4937      4938
      4935      4934      4937      4939      4935      4934      4937      4940
      4936      4934      4937      4938      4936      4934      4937      4939
      4936      4934      4937      4940      4937      4940      4943      4944
      4937      4940      4943      4945      4937      4940      4943      4946
      4938      4937      4940      4941      4938      4937      4940      4942
      4938      4937      4940      4943      4939      4937      4940      4941
      4939      4937      4940      4942      4939      4937      4940      4943
      4940      4943      4946      4947      4940      4943      4946      4948
      4941      4940      4943      4944      4941      4940      4943      4945
      4941      4940      4943      4946      4942      4940      4943      4944
      4942      4940      4943      4945      4942      4940      4943      4946
      4943      4946      4948      4949      4943      4946      4948      4950
      4944      4943      4946      4947      4944      4943      4946      4948
      4945      4943      4946      4947      4945      4943      4946      4948
      4946      4948      4950      4951      4946      4948      4950      4952
      4946      4948      4950      4953      4947      4946      4948      4949
      4947      4946      4948      4950      4948      4950      4953      4954
      4948      4950      4953      4955      4948      4950      4953      4956
      4949      4948      4950      4951      4949      4948      4950      4952
      4949      4948      4950      4953      4950      4953      4956      4957
      4950      4953      4956      4958      4950      4953      4956      4959
      4951      4950      4953      4954      4951      4950      4953      4955
      4951      4950      4953      4956      4952      4950      4953      4954
      4952      4950      4953      4955      4952      4950      4953      4956
      4953      4956      4959      4960      4953      4956      4959      4961
      4953      4956      4959      4962      4954      4953      4956      4957
      4954      4953      4956      4958      4954      4953      4956      4959
      4955      4953      4956      4957      4955      4953      4956      4958
      4955      4953      4956      4959      4956      4959      4962      4963
      4956      4959      4962      4964      4956      4959      4962      4965
      4957      4956      4959      4960      4957      4956      4959      4961
      4957      4956      4959      4962      4958      4956      4959      4960
      4958      4956      4959      4961      4958      4956      4959      4962
      4959      4962      4965      4966      4959      4962      4965      4967
      4959      4962      4965      4968      4960      4959      4962      4963
      4960      4959      4962      4964      4960      4959      4962      4965
      4961      4959      4962      4963      4961      4959      4962      4964
      4961      4959      4962      4965      4962      4965      4968      4969
      4962      4965      4968      4970      4962      4965      4968      4971
      4963      4962      4965      4966      4963      4962      4965      4967
      4963      4962      4965      4968      4964      4962      4965      4966
      4964      4962      4965      4967      4964      4962      4965      4968
      4965      4968      4971      4972      4965      4968      4971      4973
      4965      4968      4971      4974      4966      4965      4968      4969
      4966      4965      4968      4970      4966      4965      4968      4971
      4967      4965      4968      4969      4967      4965      4968      4970
      4967      4965      4968      4971      4969      4968      4971      4972
      4969      4968      4971      4973      4969      4968      4971      4974
      4970      4968      4971      4972      4970      4968      4971      4973
      4970      4968      4971      4974      4975      4979      4982      4983
      4975      4979      4982      4984      4975      4979      4982      4988
      4976      4975      4979      4980      4976      4975      4979      4981
      4976      4975      4979      4982      4977      4975      4979      4980
      4977      4975      4979      4981      4977      4975      4979      4982
      4978      4975      4979      4980      4978      4975      4979      4981
      4978      4975      4979      4982      4979      4982      4988      4985
      4980      4979      4982      4983      4980      4979      4982      4984
      4980      4979      4982      4988      4981      4979      4982      4983
      4981      4979      4982      4984      4981      4979      4982      4988
      4982      4988      4985      4986      4982      4988      4985      4987
      4982      4988      4985      4989      4983      4982      4988      4985
      4984      4982      4988      4985      4985      4989      4990      4991
      4985      4989      4990      4992      4985      4989      4990      4993
      4986      4985      4989      4990      4987      4985      4989      4990
      4988      4985      4989      4990      4989      4990      4993      4994
      4989      4990      4993      4995      4989      4990      4993      5001
      4990      4993      4995      4996      4990      4993      5001      5002
      4990      4993      5001      5003      4990      4993      5001      5004
      4991      4990      4993      4994      4991      4990      4993      4995
      4991      4990      4993      5001      4992      4990      4993      4994
      4992      4990      4993      4995      4992      4990      4993      5001
      4993      4995      4996      4997      4993      4995      4996      4998
      4993      5001      5004      5005      4994      4993      4995      4996
      4994      4993      5001      5002      4994      4993      5001      5003
      4994      4993      5001      5004      4995      4993      5001      5002
      4995      4993      5001      5003      4995      4993      5001      5004
      4995      4996      4998      4999      4995      4996      4998      5000
      4995      4996      4998      5010      4996      4995      4993      5001
      4996      4998      5010      5011      4996      4998      5010      5012
      4996      4998      5010      5013      4997      4996      4998      4999
      4997      4996      4998      5000      4997      4996      4998      5010
      4998      5010      5013      5014      4998      5010      5013      5015
      4998      5010      5013      5016      4999      4998      5010      5011
      4999      4998      5010      5012      4999      4998      5010      5013
      5000      4998      5010      5011      5000      4998      5010      5012
      5000      4998      5010      5013      5001      5004      5005      5006
      5001      5004      5005      5007      5002      5001      5004      5005
      5003      5001      5004      5005      5004      5005      5007      5008
      5004      5005      5007      5009      5004      5005      5007      5057
      5005      5007      5057      5058      5005      5007      5057      5059
      5005      5007      5057      5060      5006      5005      5007      5008
      5006      5005      5007      5009      5006      5005      5007      5057
      5007      5057      5060      5061      5007      5057      5060      5062
      5007      5057      5060      5063      5008      5007      5057      5058
      5008      5007      5057      5059      5008      5007      5057      5060
      5009      5007      5057      5058      5009      5007      5057      5059
      5009      5007      5057      5060      5010      5013      5016      5017
      5010      5013      5016      5018      5010      5013      5016      5019
      5011      5010      5013      5014      5011      5010      5013      5015
      5011      5010      5013      5016      5012      5010      5013      5014
      5012      5010      5013      5015      5012      5010      5013      5016
      5013      5016      5019      5020      5013      5016      5019      5021
      5013      5016      5019      5022      5014      5013      5016      5017
      5014      5013      5016      5018      5014      5013      5016      5019
      5015      5013      5016      5017      5015      5013      5016      5018
      5015      5013      5016      5019      5016      5019      5022      5023
      5016      5019      5022      5024      5016      5019      5022      5025
      5017      5016      5019      5020      5017      5016      5019      5021
      5017      5016      5019      5022      5018      5016      5019      5020
      5018      5016      5019      5021      5018      5016      5019      5022
      5019      5022      5025      5026      5019      5022      5025      5027
      5019      5022      5025      5028      5020      5019      5022      5023
      5020      5019      5022      5024      5020      5019      5022      5025
      5021      5019      5022      5023      5021      5019      5022      5024
      5021      5019      5022      5025      5022      5025      5028      5029
      5022      5025      5028      5030      5023      5022      5025      5026
      5023      5022      5025      5027      5023      5022      5025      5028
      5024      5022      5025      5026      5024      5022      5025      5027
      5024      5022      5025      5028      5025      5028      5030      5031
      5025      5028      5030      5032      5026      5025      5028      5029
      5026      5025      5028      5030      5027      5025      5028      5029
      5027      5025      5028      5030      5028      5030      5032      5033
      5028      5030      5032      5034      5028      5030      5032      5035
      5029      5028      5030      5031      5029      5028      5030      5032
      5030      5032      5035      5036      5030      5032      5035      5037
      5030      5032      5035      5038      5031      5030      5032      5033
      5031      5030      5032      5034      5031      5030      5032      5035
      5032      5035      5038      5039      5032      5035      5038      5040
      5032      5035      5038      5041      5033      5032      5035      5036
      5033      5032      5035      5037      5033      5032      5035      5038
      5034      5032      5035      5036      5034      5032      5035      5037
      5034      5032      5035      5038      5035      5038      5041      5042
      5035      5038      5041      5043      5035      5038      5041      5044
      5036      5035      5038      5039      5036      5035      5038      5040
      5036      5035      5038      5041      5037      5035      5038      5039
      5037      5035      5038      5040      5037      5035      5038      5041
      5038      5041      5044      5045      5038      5041      5044      5046
      5038      5041      5044      5047      5039      5038      5041      5042
      5039      5038      5041      5043      5039      5038      5041      5044
      5040      5038      5041      5042      5040      5038      5041      5043
      5040      5038      5041      5044      5041      5044      5047      5048
      5041      5044      5047      5049      5041      5044      5047      5050
      5042      5041      5044      5045      5042      5041      5044      5046
      5042      5041      5044      5047      5043      5041      5044      5045
      5043      5041      5044      5046      5043      5041      5044      5047
      5044      5047      5050      5051      5044      5047      5050      5052
      5044      5047      5050      5053      5045      5044      5047      5048
      5045      5044      5047      5049      5045      5044      5047      5050
      5046      5044      5047      5048      5046      5044      5047      5049
      5046      5044      5047      5050      5047      5050      5053      5054
      5047      5050      5053      5055      5047      5050      5053      5056
      5048      5047      5050      5051      5048      5047      5050      5052
      5048      5047      5050      5053      5049      5047      5050      5051
      5049      5047      5050      5052      5049      5047      5050      5053
      5051      5050      5053      5054      5051      5050      5053      5055
      5051      5050      5053      5056      5052      5050      5053      5054
      5052      5050      5053      5055      5052      5050      5053      5056
      5057      5060      5063      5064      5057      5060      5063      5065
      5057      5060      5063      5066      5058      5057      5060      5061
      5058      5057      5060      5062      5058      5057      5060      5063
      5059      5057      5060      5061      5059      5057      5060      5062
      5059      5057      5060      5063      5060      5063      5066      5067
      5060      5063      5066      5068      5060      5063      5066      5069
      5061      5060      5063      5064      5061      5060      5063      5065
      5061      5060      5063      5066      5062      5060      5063      5064
      5062      5060      5063      5065      5062      5060      5063      5066
      5063      5066      5069      5070      5063      5066      5069      5071
      5063      5066      5069      5072      5064      5063      5066      5067
      5064      5063      5066      5068      5064      5063      5066      5069
      5065      5063      5066      5067      5065      5063      5066      5068
      5065      5063      5066      5069      5066      5069      5072      5073
      5066      5069      5072      5074      5066      5069      5072      5075
      5067      5066      5069      5070      5067      5066      5069      5071
      5067      5066      5069      5072      5068      5066      5069      5070
      5068      5066      5069      5071      5068      5066      5069      5072
      5069      5072      5075      5076      5069      5072      5075      5077
      5069      5072      5075      5078      5070      5069      5072      5073
      5070      5069      5072      5074      5070      5069      5072      5075
      5071      5069      5072      5073      5071      5069      5072      5074
      5071      5069      5072      5075      5072      5075      5078      5079
      5072      5075      5078      5080      5072      5075      5078      5081
      5073      5072      5075      5076      5073      5072      5075      5077
      5073      5072      5075      5078      5074      5072      5075      5076
      5074      5072      5075      5077      5074      5072      5075      5078
      5075      5078      5081      5082      5075      5078      5081      5083
      5075      5078      5081      5084      5076      5075      5078      5079
      5076      5075      5078      5080      5076      5075      5078      5081
      5077      5075      5078      5079      5077      5075      5078      5080
      5077      5075      5078      5081      5078      5081      5084      5085
      5078      5081      5084      5086      5078      5081      5084      5087
      5079      5078      5081      5082      5079      5078      5081      5083
      5079      5078      5081      5084      5080      5078      5081      5082
      5080      5078      5081      5083      5080      5078      5081      5084
      5081      5084      5087      5088      5081      5084      5087      5089
      5081      5084      5087      5090      5082      5081      5084      5085
      5082      5081      5084      5086      5082      5081      5084      5087
      5083      5081      5084      5085      5083      5081      5084      5086
      5083      5081      5084      5087      5084      5087      5090      5091
      5084      5087      5090      5092      5084      5087      5090      5093
      5085      5084      5087      5088      5085      5084      5087      5089
      5085      5084      5087      5090      5086      5084      5087      5088
      5086      5084      5087      5089      5086      5084      5087      5090
      5087      5090      5093      5094      5087      5090      5093      5095
      5087      5090      5093      5096      5088      5087      5090      5091
      5088      5087      5090      5092      5088      5087      5090      5093
      5089      5087      5090      5091      5089      5087      5090      5092
      5089      5087      5090      5093      5090      5093      5096      5097
      5090      5093      5096      5098      5090      5093      5096      5099
      5091      5090      5093      5094      5091      5090      5093      5095
      5091      5090      5093      5096      5092      5090      5093      5094
      5092      5090      5093      5095      5092      5090      5093      5096
      5093      5096      5099      5100      5093      5096      5099      5101
      5093      5096      5099      5102      5094      5093      5096      5097
      5094      5093      5096      5098      5094      5093      5096      5099
      5095      5093      5096      5097      5095      5093      5096      5098
      5095      5093      5096      5099      5096      5099      5102      5103
      5096      5099      5102      5104      5096      5099      5102      5105
      5097      5096      5099      5100      5097      5096      5099      5101
      5097      5096      5099      5102      5098      5096      5099      5100
      5098      5096      5099      5101      5098      5096      5099      5102
      5100      5099      5102      5103      5100      5099      5102      5104
      5100      5099      5102      5105      5101      5099      5102      5103
      5101      5099      5102      5104      5101      5099      5102      5105
      5106      5110      5113      5114      5106      5110      5113      5144
      5106      5152      5149      5144      5106      5152      5149      5150
      5106      5152      5149      5151      5107      5106      5108      5109
      5107      5106      5110      5111      5107      5106      5110      5112
      5107      5106      5110      5113      5107      5106      5152      5149
      5107      5106      5152      5153      5107      5106      5152      5154
      5108      5106      5110      5111      5108      5106      5110      5112
      5108      5106      5110      5113      5108      5106      5152      5149
      5108      5106      5152      5153      5108      5106      5152      5154
      5109      5108      5106      5110      5109      5108      5106      5152
      5110      5106      5152      5149      5110      5106      5152      5153
      5110      5106      5152      5154      5110      5113      5114      5115
      5110      5113      5114      5116      5110      5113      5144      5142
      5110      5113      5144      5145      5110      5113      5144      5149
      5111      5110      5106      5152      5111      5110      5113      5114
      5111      5110      5113      5144      5112      5110      5106      5152
      5112      5110      5113      5114      5112      5110      5113      5144
      5113      5110      5106      5152      5113      5114      5116      5117
      5113      5114      5116      5118      5113      5114      5116      5119
      5113      5144      5142      5119      5113      5144      5142      5139
      5113      5144      5142      5143      5113      5144      5145      5146
      5113      5144      5145      5147      5113      5144      5145      5148
      5113      5144      5149      5150      5113      5144      5149      5151
      5113      5144      5149      5152      5114      5113      5144      5142
      5114      5113      5144      5145      5114      5113      5144      5149
      5114      5116      5119      5120      5114      5116      5119      5121
      5114      5116      5119      5142      5115      5114      5113      5144
      5115      5114      5116      5117      5115      5114      5116      5118
      5115      5114      5116      5119      5116      5114      5113      5144
      5116      5119      5121      5122      5116      5119      5121      5123
      5116      5119      5121      5131      5116      5119      5142      5139
      5116      5119      5142      5143      5116      5119      5142      5144
      5117      5116      5119      5120      5117      5116      5119      5121
      5117      5116      5119      5142      5118      5116      5119      5120
      5118      5116      5119      5121      5118      5116      5119      5142
      5119      5121      5123      5124      5119      5121      5123      5125
      5119      5121      5123      5126      5119      5121      5131      5129
      5119      5121      5131      5132      5119      5121      5131      5136
      5119      5142      5139      5136      5119      5142      5139      5140
      5119      5142      5139      5141      5119      5142      5144      5145
      5119      5142      5144      5149      5120      5119      5121      5122
      5120      5119      5121      5123      5120      5119      5121      5131
      5120      5119      5142      5139      5120      5119      5142      5143
      5120      5119      5142      5144      5121      5119      5142      5139
      5121      5119      5142      5143      5121      5119      5142      5144
      5121      5123      5126      5127      5121      5123      5126      5128
      5121      5123      5126      5129      5121      5131      5129      5126
      5121      5131      5129      5130      5121      5131      5129      5155
      5121      5131      5132      5133      5121      5131      5132      5134
      5121      5131      5132      5135      5121      5131      5136      5137
      5121      5131      5136      5138      5121      5131      5136      5139
      5122      5121      5119      5142      5122      5121      5123      5124
      5122      5121      5123      5125      5122      5121      5123      5126
      5122      5121      5131      5129      5122      5121      5131      5132
      5122      5121      5131      5136      5123      5121      5119      5142
      5123      5121      5131      5129      5123      5121      5131      5132
      5123      5121      5131      5136      5123      5126      5129      5130
      5123      5126      5129      5131      5123      5126      5129      5155
      5124      5123      5121      5131      5124      5123      5126      5127
      5124      5123      5126      5128      5124      5123      5126      5129
      5125      5123      5121      5131      5125      5123      5126      5127
      5125      5123      5126      5128      5125      5123      5126      5129
      5126      5123      5121      5131      5126      5129      5131      5132
      5126      5129      5131      5136      5126      5129      5155      5156
      5126      5129      5155      5157      5126      5129      5155      5161
      5127      5126      5129      5130      5127      5126      5129      5131
      5127      5126      5129      5155      5128      5126      5129      5130
      5128      5126      5129      5131      5128      5126      5129      5155
      5129      5131      5132      5133      5129      5131      5132      5134
      5129      5131      5132      5135      5129      5131      5136      5137
      5129      5131      5136      5138      5129      5131      5136      5139
      5129      5155      5157      5158      5129      5155      5157      5159
      5129      5155      5157      5160      5129      5155      5161      5162
      5129      5155      5161      5163      5129      5155      5161      5164
      5130      5129      5131      5132      5130      5129      5131      5136
      5130      5129      5155      5156      5130      5129      5155      5157
      5130      5129      5155      5161      5131      5121      5119      5142
      5131      5129      5155      5156      5131      5129      5155      5157
      5131      5129      5155      5161      5131      5136      5139      5140
      5131      5136      5139      5141      5131      5136      5139      5142
      5132      5131      5129      5155      5132      5131      5136      5137
      5132      5131      5136      5138      5132      5131      5136      5139
      5133      5132      5131      5136      5134      5132      5131      5136
      5135      5132      5131      5136      5136      5131      5129      5155
      5136      5139      5142      5143      5136      5139      5142      5144
      5137      5136      5139      5140      5137      5136      5139      5141
      5137      5136      5139      5142      5138      5136      5139      5140
      5138      5136      5139      5141      5138      5136      5139      5142
      5139      5142      5144      5145      5139      5142      5144      5149
      5140      5139      5142      5143      5140      5139      5142      5144
      5141      5139      5142      5143      5141      5139      5142      5144
      5142      5144      5145      5146      5142      5144      5145      5147
      5142      5144      5145      5148      5142      5144      5149      5150
      5142      5144      5149      5151      5142      5144      5149      5152
      5143      5142      5144      5145      5143      5142      5144      5149
      5144      5149      5152      5153      5144      5149      5152      5154
      5145      5144      5149      5150      5145      5144      5149      5151
      5145      5144      5149      5152      5146      5145      5144      5149
      5147      5145      5144      5149      5148      5145      5144      5149
      5150      5149      5152      5153      5150      5149      5152      5154
      5151      5149      5152      5153      5151      5149      5152      5154
      5155      5161      5164      5165      5155      5161      5164      5166
      5155      5161      5164      5167      5156      5155      5157      5158
      5156      5155      5157      5159      5156      5155      5157      5160
      5156      5155      5161      5162      5156      5155      5161      5163
      5156      5155      5161      5164      5157      5155      5161      5162
      5157      5155      5161      5163      5157      5155      5161      5164
      5158      5157      5155      5161      5159      5157      5155      5161
      5160      5157      5155      5161      5161      5164      5167      5168
      5161      5164      5167      5169      5161      5164      5167      5170
      5162      5161      5164      5165      5162      5161      5164      5166
      5162      5161      5164      5167      5163      5161      5164      5165
      5163      5161      5164      5166      5163      5161      5164      5167
      5164      5167      5170      5171      5164      5167      5170      5172
      5164      5167      5170      5176      5165      5164      5167      5168
      5165      5164      5167      5169      5165      5164      5167      5170
      5166      5164      5167      5168      5166      5164      5167      5169
      5166      5164      5167      5170      5167      5170      5172      5173
      5167      5170      5172      5174      5167      5170      5172      5175
      5167      5170      5176      5177      5167      5170      5176      5178
      5167      5170      5176      5179      5168      5167      5170      5171
      5168      5167      5170      5172      5168      5167      5170      5176
      5169      5167      5170      5171      5169      5167      5170      5172
      5169      5167      5170      5176      5171      5170      5172      5173
      5171      5170      5172      5174      5171      5170      5172      5175
      5171      5170      5176      5177      5171      5170      5176      5178
      5171      5170      5176      5179      5172      5170      5176      5177
      5172      5170      5176      5178      5172      5170      5176      5179
      5173      5172      5170      5176      5174      5172      5170      5176
      5175      5172      5170      5176      5180      5184      5187      5188
      5180      5184      5187      5218      5180      5226      5223      5218
      5180      5226      5223      5224      5180      5226      5223      5225
      5181      5180      5182      5183      5181      5180      5184      5185
      5181      5180      5184      5186      5181      5180      5184      5187
      5181      5180      5226      5223      5181      5180      5226      5227
      5181      5180      5226      5228      5182      5180      5184      5185
      5182      5180      5184      5186      5182      5180      5184      5187
      5182      5180      5226      5223      5182      5180      5226      5227
      5182      5180      5226      5228      5183      5182      5180      5184
      5183      5182      5180      5226      5184      5180      5226      5223
      5184      5180      5226      5227      5184      5180      5226      5228
      5184      5187      5188      5189      5184      5187      5188      5190
      5184      5187      5218      5216      5184      5187      5218      5219
      5184      5187      5218      5223      5185      5184      5180      5226
      5185      5184      5187      5188      5185      5184      5187      5218
      5186      5184      5180      5226      5186      5184      5187      5188
      5186      5184      5187      5218      5187      5184      5180      5226
      5187      5188      5190      5191      5187      5188      5190      5192
      5187      5188      5190      5193      5187      5218      5216      5193
      5187      5218      5216      5213      5187      5218      5216      5217
      5187      5218      5219      5220      5187      5218      5219      5221
      5187      5218      5219      5222      5187      5218      5223      5224
      5187      5218      5223      5225      5187      5218      5223      5226
      5188      5187      5218      5216      5188      5187      5218      5219
      5188      5187      5218      5223      5188      5190      5193      5194
      5188      5190      5193      5195      5188      5190      5193      5216
      5189      5188      5187      5218      5189      5188      5190      5191
      5189      5188      5190      5192      5189      5188      5190      5193
      5190      5188      5187      5218      5190      5193      5195      5196
      5190      5193      5195      5197      5190      5193      5195      5205
      5190      5193      5216      5213      5190      5193      5216      5217
      5190      5193      5216      5218      5191      5190      5193      5194
      5191      5190      5193      5195      5191      5190      5193      5216
      5192      5190      5193      5194      5192      5190      5193      5195
      5192      5190      5193      5216      5193      5195      5197      5198
      5193      5195      5197      5199      5193      5195      5197      5200
      5193      5195      5205      5203      5193      5195      5205      5206
      5193      5195      5205      5210      5193      5216      5213      5210
      5193      5216      5213      5214      5193      5216      5213      5215
      5193      5216      5218      5219      5193      5216      5218      5223
      5194      5193      5195      5196      5194      5193      5195      5197
      5194      5193      5195      5205      5194      5193      5216      5213
      5194      5193      5216      5217      5194      5193      5216      5218
      5195      5193      5216      5213      5195      5193      5216      5217
      5195      5193      5216      5218      5195      5197      5200      5201
      5195      5197      5200      5202      5195      5197      5200      5203
      5195      5205      5203      5200      5195      5205      5203      5204
      5195      5205      5203      5229      5195      5205      5206      5207
      5195      5205      5206      5208      5195      5205      5206      5209
      5195      5205      5210      5211      5195      5205      5210      5212
      5195      5205      5210      5213      5196      5195      5193      5216
      5196      5195      5197      5198      5196      5195      5197      5199
      5196      5195      5197      5200      5196      5195      5205      5203
      5196      5195      5205      5206      5196      5195      5205      5210
      5197      5195      5193      5216      5197      5195      5205      5203
      5197      5195      5205      5206      5197      5195      5205      5210
      5197      5200      5203      5204      5197      5200      5203      5205
      5197      5200      5203      5229      5198      5197      5195      5205
      5198      5197      5200      5201      5198      5197      5200      5202
      5198      5197      5200      5203      5199      5197      5195      5205
      5199      5197      5200      5201      5199      5197      5200      5202
      5199      5197      5200      5203      5200      5197      5195      5205
      5200      5203      5205      5206      5200      5203      5205      5210
      5200      5203      5229      5230      5200      5203      5229      5231
      5200      5203      5229      5235      5201      5200      5203      5204
      5201      5200      5203      5205      5201      5200      5203      5229
      5202      5200      5203      5204      5202      5200      5203      5205
      5202      5200      5203      5229      5203      5205      5206      5207
      5203      5205      5206      5208      5203      5205      5206      5209
      5203      5205      5210      5211      5203      5205      5210      5212
      5203      5205      5210      5213      5203      5229      5231      5232
      5203      5229      5231      5233      5203      5229      5231      5234
      5203      5229      5235      5236      5203      5229      5235      5237
      5203      5229      5235      5238      5204      5203      5205      5206
      5204      5203      5205      5210      5204      5203      5229      5230
      5204      5203      5229      5231      5204      5203      5229      5235
      5205      5195      5193      5216      5205      5203      5229      5230
      5205      5203      5229      5231      5205      5203      5229      5235
      5205      5210      5213      5214      5205      5210      5213      5215
      5205      5210      5213      5216      5206      5205      5203      5229
      5206      5205      5210      5211      5206      5205      5210      5212
      5206      5205      5210      5213      5207      5206      5205      5210
      5208      5206      5205      5210      5209      5206      5205      5210
      5210      5205      5203      5229      5210      5213      5216      5217
      5210      5213      5216      5218      5211      5210      5213      5214
      5211      5210      5213      5215      5211      5210      5213      5216
      5212      5210      5213      5214      5212      5210      5213      5215
      5212      5210      5213      5216      5213      5216      5218      5219
      5213      5216      5218      5223      5214      5213      5216      5217
      5214      5213      5216      5218      5215      5213      5216      5217
      5215      5213      5216      5218      5216      5218      5219      5220
      5216      5218      5219      5221      5216      5218      5219      5222
      5216      5218      5223      5224      5216      5218      5223      5225
      5216      5218      5223      5226      5217      5216      5218      5219
      5217      5216      5218      5223      5218      5223      5226      5227
      5218      5223      5226      5228      5219      5218      5223      5224
      5219      5218      5223      5225      5219      5218      5223      5226
      5220      5219      5218      5223      5221      5219      5218      5223
      5222      5219      5218      5223      5224      5223      5226      5227
      5224      5223      5226      5228      5225      5223      5226      5227
      5225      5223      5226      5228      5229      5235      5238      5239
      5229      5235      5238      5240      5229      5235      5238      5241
      5230      5229      5231      5232      5230      5229      5231      5233
      5230      5229      5231      5234      5230      5229      5235      5236
      5230      5229      5235      5237      5230      5229      5235      5238
      5231      5229      5235      5236      5231      5229      5235      5237
      5231      5229      5235      5238      5232      5231      5229      5235
      5233      5231      5229      5235      5234      5231      5229      5235
      5235      5238      5241      5242      5235      5238      5241      5243
      5235      5238      5241      5244      5236      5235      5238      5239
      5236      5235      5238      5240      5236      5235      5238      5241
      5237      5235      5238      5239      5237      5235      5238      5240
      5237      5235      5238      5241      5238      5241      5244      5245
      5238      5241      5244      5246      5238      5241      5244      5250
      5239      5238      5241      5242      5239      5238      5241      5243
      5239      5238      5241      5244      5240      5238      5241      5242
      5240      5238      5241      5243      5240      5238      5241      5244
      5241      5244      5246      5247      5241      5244      5246      5248
      5241      5244      5246      5249      5241      5244      5250      5251
      5241      5244      5250      5252      5241      5244      5250      5253
      5242      5241      5244      5245      5242      5241      5244      5246
      5242      5241      5244      5250      5243      5241      5244      5245
      5243      5241      5244      5246      5243      5241      5244      5250
      5245      5244      5246      5247      5245      5244      5246      5248
      5245      5244      5246      5249      5245      5244      5250      5251
      5245      5244      5250      5252      5245      5244      5250      5253
      5246      5244      5250      5251      5246      5244      5250      5252
      5246      5244      5250      5253      5247      5246      5244      5250
      5248      5246      5244      5250      5249      5246      5244      5250
      5254      5258      5261      5262      5254      5258      5261      5263
      5254      5258      5261      5267      5255      5254      5258      5259
      5255      5254      5258      5260      5255      5254      5258      5261
      5256      5254      5258      5259      5256      5254      5258      5260
      5256      5254      5258      5261      5257      5254      5258      5259
      5257      5254      5258      5260      5257      5254      5258      5261
      5258      5261      5267      5264      5259      5258      5261      5262
      5259      5258      5261      5263      5259      5258      5261      5267
      5260      5258      5261      5262      5260      5258      5261      5263
      5260      5258      5261      5267      5261      5267      5264      5265
      5261      5267      5264      5266      5261      5267      5264      5268
      5262      5261      5267      5264      5263      5261      5267      5264
      5264      5268      5269      5270      5264      5268      5269      5271
      5264      5268      5269      5272      5265      5264      5268      5269
      5266      5264      5268      5269      5267      5264      5268      5269
      5268      5269      5272      5273      5268      5269      5272      5274
      5268      5269      5272      5280      5269      5272      5274      5275
      5269      5272      5280      5281      5269      5272      5280      5282
      5269      5272      5280      5283      5270      5269      5272      5273
      5270      5269      5272      5274      5270      5269      5272      5280
      5271      5269      5272      5273      5271      5269      5272      5274
      5271      5269      5272      5280      5272      5274      5275      5276
      5272      5274      5275      5277      5272      5280      5283      5284
      5273      5272      5274      5275      5273      5272      5280      5281
      5273      5272      5280      5282      5273      5272      5280      5283
      5274      5272      5280      5281      5274      5272      5280      5282
      5274      5272      5280      5283      5274      5275      5277      5278
      5274      5275      5277      5279      5274      5275      5277      5289
      5275      5274      5272      5280      5275      5277      5289      5290
      5275      5277      5289      5291      5275      5277      5289      5292
      5276      5275      5277      5278      5276      5275      5277      5279
      5276      5275      5277      5289      5277      5289      5292      5293
      5277      5289      5292      5294      5277      5289      5292      5295
      5278      5277      5289      5290      5278      5277      5289      5291
      5278      5277      5289      5292      5279      5277      5289      5290
      5279      5277      5289      5291      5279      5277      5289      5292
      5280      5283      5284      5285      5280      5283      5284      5286
      5281      5280      5283      5284      5282      5280      5283      5284
      5283      5284      5286      5287      5283      5284      5286      5288
      5283      5284      5286      5336      5284      5286      5336      5337
      5284      5286      5336      5338      5284      5286      5336      5339
      5285      5284      5286      5287      5285      5284      5286      5288
      5285      5284      5286      5336      5286      5336      5339      5340
      5286      5336      5339      5341      5286      5336      5339      5342
      5287      5286      5336      5337      5287      5286      5336      5338
      5287      5286      5336      5339      5288      5286      5336      5337
      5288      5286      5336      5338      5288      5286      5336      5339
      5289      5292      5295      5296      5289      5292      5295      5297
      5290      5289      5292      5293      5290      5289      5292      5294
      5290      5289      5292      5295      5291      5289      5292      5293
      5291      5289      5292      5294      5291      5289      5292      5295
      5292      5295      5297      5298      5292      5295      5297      5299
      5293      5292      5295      5296      5293      5292      5295      5297
      5294      5292      5295      5296      5294      5292      5295      5297
      5295      5297      5299      5300      5295      5297      5299      5301
      5295      5297      5299      5302      5296      5295      5297      5298
      5296      5295      5297      5299      5297      5299      5302      5303
      5297      5299      5302      5304      5298      5297      5299      5300
      5298      5297      5299      5301      5298      5297      5299      5302
      5299      5302      5304      5305      5299      5302      5304      5306
      5300      5299      5302      5303      5300      5299      5302      5304
      5301      5299      5302      5303      5301      5299      5302      5304
      5302      5304      5306      5307      5302      5304      5306      5308
      5302      5304      5306      5309      5303      5302      5304      5305
      5303      5302      5304      5306      5304      5306      5309      5310
      5304      5306      5309      5311      5305      5304      5306      5307
      5305      5304      5306      5308      5305      5304      5306      5309
      5306      5309      5311      5312      5306      5309      5311      5313
      5307      5306      5309      5310      5307      5306      5309      5311
      5308      5306      5309      5310      5308      5306      5309      5311
      5309      5311      5313      5314      5309      5311      5313      5315
      5309      5311      5313      5316      5310      5309      5311      5312
      5310      5309      5311      5313      5311      5313      5316      5317
      5311      5313      5316      5318      5312      5311      5313      5314
      5312      5311      5313      5315      5312      5311      5313      5316
      5313      5316      5318      5319      5313      5316      5318      5320
      5314      5313      5316      5317      5314      5313      5316      5318
      5315      5313      5316      5317      5315      5313      5316      5318
      5316      5318      5320      5321      5316      5318      5320      5322
      5316      5318      5320      5323      5317      5316      5318      5319
      5317      5316      5318      5320      5318      5320      5323      5324
      5318      5320      5323      5325      5318      5320      5323      5326
      5319      5318      5320      5321      5319      5318      5320      5322
      5319      5318      5320      5323      5320      5323      5326      5327
      5320      5323      5326      5328      5320      5323      5326      5329
      5321      5320      5323      5324      5321      5320      5323      5325
      5321      5320      5323      5326      5322      5320      5323      5324
      5322      5320      5323      5325      5322      5320      5323      5326
      5323      5326      5329      5330      5323      5326      5329      5331
      5323      5326      5329      5332      5324      5323      5326      5327
      5324      5323      5326      5328      5324      5323      5326      5329
      5325      5323      5326      5327      5325      5323      5326      5328
      5325      5323      5326      5329      5326      5329      5332      5333
      5326      5329      5332      5334      5326      5329      5332      5335
      5327      5326      5329      5330      5327      5326      5329      5331
      5327      5326      5329      5332      5328      5326      5329      5330
      5328      5326      5329      5331      5328      5326      5329      5332
      5330      5329      5332      5333      5330      5329      5332      5334
      5330      5329      5332      5335      5331      5329      5332      5333
      5331      5329      5332      5334      5331      5329      5332      5335
      5336      5339      5342      5343      5336      5339      5342      5344
      5336      5339      5342      5345      5337      5336      5339      5340
      5337      5336      5339      5341      5337      5336      5339      5342
      5338      5336      5339      5340      5338      5336      5339      5341
      5338      5336      5339      5342      5339      5342      5345      5346
      5339      5342      5345      5347      5339      5342      5345      5348
      5340      5339      5342      5343      5340      5339      5342      5344
      5340      5339      5342      5345      5341      5339      5342      5343
      5341      5339      5342      5344      5341      5339      5342      5345
      5342      5345      5348      5349      5342      5345      5348      5350
      5342      5345      5348      5351      5343      5342      5345      5346
      5343      5342      5345      5347      5343      5342      5345      5348
      5344      5342      5345      5346      5344      5342      5345      5347
      5344      5342      5345      5348      5345      5348      5351      5352
      5345      5348      5351      5353      5345      5348      5351      5354
      5346      5345      5348      5349      5346      5345      5348      5350
      5346      5345      5348      5351      5347      5345      5348      5349
      5347      5345      5348      5350      5347      5345      5348      5351
      5348      5351      5354      5355      5348      5351      5354      5356
      5348      5351      5354      5357      5349      5348      5351      5352
      5349      5348      5351      5353      5349      5348      5351      5354
      5350      5348      5351      5352      5350      5348      5351      5353
      5350      5348      5351      5354      5351      5354      5357      5358
      5351      5354      5357      5359      5351      5354      5357      5360
      5352      5351      5354      5355      5352      5351      5354      5356
      5352      5351      5354      5357      5353      5351      5354      5355
      5353      5351      5354      5356      5353      5351      5354      5357
      5354      5357      5360      5361      5354      5357      5360      5362
      5354      5357      5360      5363      5355      5354      5357      5358
      5355      5354      5357      5359      5355      5354      5357      5360
      5356      5354      5357      5358      5356      5354      5357      5359
      5356      5354      5357      5360      5357      5360      5363      5364
      5357      5360      5363      5365      5357      5360      5363      5366
      5358      5357      5360      5361      5358      5357      5360      5362
      5358      5357      5360      5363      5359      5357      5360      5361
      5359      5357      5360      5362      5359      5357      5360      5363
      5360      5363      5366      5367      5360      5363      5366      5368
      5360      5363      5366      5369      5361      5360      5363      5364
      5361      5360      5363      5365      5361      5360      5363      5366
      5362      5360      5363      5364      5362      5360      5363      5365
      5362      5360      5363      5366      5363      5366      5369      5370
      5363      5366      5369      5371      5363      5366      5369      5372
      5364      5363      5366      5367      5364      5363      5366      5368
      5364      5363      5366      5369      5365      5363      5366      5367
      5365      5363      5366      5368      5365      5363      5366      5369
      5366      5369      5372      5373      5366      5369      5372      5374
      5366      5369      5372      5375      5367      5366      5369      5370
      5367      5366      5369      5371      5367      5366      5369      5372
      5368      5366      5369      5370      5368      5366      5369      5371
      5368      5366      5369      5372      5369      5372      5375      5376
      5369      5372      5375      5377      5369      5372      5375      5378
      5370      5369      5372      5373      5370      5369      5372      5374
      5370      5369      5372      5375      5371      5369      5372      5373
      5371      5369      5372      5374      5371      5369      5372      5375
      5372      5375      5378      5379      5372      5375      5378      5380
      5372      5375      5378      5381      5373      5372      5375      5376
      5373      5372      5375      5377      5373      5372      5375      5378
      5374      5372      5375      5376      5374      5372      5375      5377
      5374      5372      5375      5378      5375      5378      5381      5382
      5375      5378      5381      5383      5375      5378      5381      5384
      5376      5375      5378      5379      5376      5375      5378      5380
      5376      5375      5378      5381      5377      5375      5378      5379
      5377      5375      5378      5380      5377      5375      5378      5381
      5379      5378      5381      5382      5379      5378      5381      5383
      5379      5378      5381      5384      5380      5378      5381      5382
      5380      5378      5381      5383      5380      5378      5381      5384
      5385      5389      5392      5393      5385      5389      5392      5423
      5385      5431      5428      5423      5385      5431      5428      5429
      5385      5431      5428      5430      5386      5385      5387      5388
      5386      5385      5389      5390      5386      5385      5389      5391
      5386      5385      5389      5392      5386      5385      5431      5428
      5386      5385      5431      5432      5386      5385      5431      5433
      5387      5385      5389      5390      5387      5385      5389      5391
      5387      5385      5389      5392      5387      5385      5431      5428
      5387      5385      5431      5432      5387      5385      5431      5433
      5388      5387      5385      5389      5388      5387      5385      5431
      5389      5385      5431      5428      5389      5385      5431      5432
      5389      5385      5431      5433      5389      5392      5393      5394
      5389      5392      5393      5395      5389      5392      5423      5421
      5389      5392      5423      5424      5389      5392      5423      5428
      5390      5389      5385      5431      5390      5389      5392      5393
      5390      5389      5392      5423      5391      5389      5385      5431
      5391      5389      5392      5393      5391      5389      5392      5423
      5392      5389      5385      5431      5392      5393      5395      5396
      5392      5393      5395      5397      5392      5393      5395      5398
      5392      5423      5421      5398      5392      5423      5421      5418
      5392      5423      5421      5422      5392      5423      5424      5425
      5392      5423      5424      5426      5392      5423      5424      5427
      5392      5423      5428      5429      5392      5423      5428      5430
      5392      5423      5428      5431      5393      5392      5423      5421
      5393      5392      5423      5424      5393      5392      5423      5428
      5393      5395      5398      5399      5393      5395      5398      5400
      5393      5395      5398      5421      5394      5393      5392      5423
      5394      5393      5395      5396      5394      5393      5395      5397
      5394      5393      5395      5398      5395      5393      5392      5423
      5395      5398      5400      5401      5395      5398      5400      5402
      5395      5398      5400      5410      5395      5398      5421      5418
      5395      5398      5421      5422      5395      5398      5421      5423
      5396      5395      5398      5399      5396      5395      5398      5400
      5396      5395      5398      5421      5397      5395      5398      5399
      5397      5395      5398      5400      5397      5395      5398      5421
      5398      5400      5402      5403      5398      5400      5402      5404
      5398      5400      5402      5405      5398      5400      5410      5408
      5398      5400      5410      5411      5398      5400      5410      5415
      5398      5421      5418      5415      5398      5421      5418      5419
      5398      5421      5418      5420      5398      5421      5423      5424
      5398      5421      5423      5428      5399      5398      5400      5401
      5399      5398      5400      5402      5399      5398      5400      5410
      5399      5398      5421      5418      5399      5398      5421      5422
      5399      5398      5421      5423      5400      5398      5421      5418
      5400      5398      5421      5422      5400      5398      5421      5423
      5400      5402      5405      5406      5400      5402      5405      5407
      5400      5402      5405      5408      5400      5410      5408      5405
      5400      5410      5408      5409      5400      5410      5408      5434
      5400      5410      5411      5412      5400      5410      5411      5413
      5400      5410      5411      5414      5400      5410      5415      5416
      5400      5410      5415      5417      5400      5410      5415      5418
      5401      5400      5398      5421      5401      5400      5402      5403
      5401      5400      5402      5404      5401      5400      5402      5405
      5401      5400      5410      5408      5401      5400      5410      5411
      5401      5400      5410      5415      5402      5400      5398      5421
      5402      5400      5410      5408      5402      5400      5410      5411
      5402      5400      5410      5415      5402      5405      5408      5409
      5402      5405      5408      5410      5402      5405      5408      5434
      5403      5402      5400      5410      5403      5402      5405      5406
      5403      5402      5405      5407      5403      5402      5405      5408
      5404      5402      5400      5410      5404      5402      5405      5406
      5404      5402      5405      5407      5404      5402      5405      5408
      5405      5402      5400      5410      5405      5408      5410      5411
      5405      5408      5410      5415      5405      5408      5434      5435
      5405      5408      5434      5436      5405      5408      5434      5440
      5406      5405      5408      5409      5406      5405      5408      5410
      5406      5405      5408      5434      5407      5405      5408      5409
      5407      5405      5408      5410      5407      5405      5408      5434
      5408      5410      5411      5412      5408      5410      5411      5413
      5408      5410      5411      5414      5408      5410      5415      5416
      5408      5410      5415      5417      5408      5410      5415      5418
      5408      5434      5436      5437      5408      5434      5436      5438
      5408      5434      5436      5439      5408      5434      5440      5441
      5408      5434      5440      5442      5408      5434      5440      5443
      5409      5408      5410      5411      5409      5408      5410      5415
      5409      5408      5434      5435      5409      5408      5434      5436
      5409      5408      5434      5440      5410      5400      5398      5421
      5410      5408      5434      5435      5410      5408      5434      5436
      5410      5408      5434      5440      5410      5415      5418      5419
      5410      5415      5418      5420      5410      5415      5418      5421
      5411      5410      5408      5434      5411      5410      5415      5416
      5411      5410      5415      5417      5411      5410      5415      5418
      5412      5411      5410      5415      5413      5411      5410      5415
      5414      5411      5410      5415      5415      5410      5408      5434
      5415      5418      5421      5422      5415      5418      5421      5423
      5416      5415      5418      5419      5416      5415      5418      5420
      5416      5415      5418      5421      5417      5415      5418      5419
      5417      5415      5418      5420      5417      5415      5418      5421
      5418      5421      5423      5424      5418      5421      5423      5428
      5419      5418      5421      5422      5419      5418      5421      5423
      5420      5418      5421      5422      5420      5418      5421      5423
      5421      5423      5424      5425      5421      5423      5424      5426
      5421      5423      5424      5427      5421      5423      5428      5429
      5421      5423      5428      5430      5421      5423      5428      5431
      5422      5421      5423      5424      5422      5421      5423      5428
      5423      5428      5431      5432      5423      5428      5431      5433
      5424      5423      5428      5429      5424      5423      5428      5430
      5424      5423      5428      5431      5425      5424      5423      5428
      5426      5424      5423      5428      5427      5424      5423      5428
      5429      5428      5431      5432      5429      5428      5431      5433
      5430      5428      5431      5432      5430      5428      5431      5433
      5434      5440      5443      5444      5434      5440      5443      5445
      5434      5440      5443      5446      5435      5434      5436      5437
      5435      5434      5436      5438      5435      5434      5436      5439
      5435      5434      5440      5441      5435      5434      5440      5442
      5435      5434      5440      5443      5436      5434      5440      5441
      5436      5434      5440      5442      5436      5434      5440      5443
      5437      5436      5434      5440      5438      5436      5434      5440
      5439      5436      5434      5440      5440      5443      5446      5447
      5440      5443      5446      5448      5440      5443      5446      5449
      5441      5440      5443      5444      5441      5440      5443      5445
      5441      5440      5443      5446      5442      5440      5443      5444
      5442      5440      5443      5445      5442      5440      5443      5446
      5443      5446      5449      5450      5443      5446      5449      5451
      5443      5446      5449      5455      5444      5443      5446      5447
      5444      5443      5446      5448      5444      5443      5446      5449
      5445      5443      5446      5447      5445      5443      5446      5448
      5445      5443      5446      5449      5446      5449      5451      5452
      5446      5449      5451      5453      5446      5449      5451      5454
      5446      5449      5455      5456      5446      5449      5455      5457
      5446      5449      5455      5458      5447      5446      5449      5450
      5447      5446      5449      5451      5447      5446      5449      5455
      5448      5446      5449      5450      5448      5446      5449      5451
      5448      5446      5449      5455      5450      5449      5451      5452
      5450      5449      5451      5453      5450      5449      5451      5454
      5450      5449      5455      5456      5450      5449      5455      5457
      5450      5449      5455      5458      5451      5449      5455      5456
      5451      5449      5455      5457      5451      5449      5455      5458
      5452      5451      5449      5455      5453      5451      5449      5455
      5454      5451      5449      5455      5459      5463      5465      5466
      5459      5463      5465      5467      5459      5463      5468      5469
      5459      5463      5468      5470      5459      5463      5468      5474
      5460      5459      5463      5464      5460      5459      5463      5465
      5460      5459      5463      5468      5461      5459      5463      5464
      5461      5459      5463      5465      5461      5459      5463      5468
      5462      5459      5463      5464      5462      5459      5463      5465
      5462      5459      5463      5468      5463      5468      5474      5471
      5464      5463      5465      5466      5464      5463      5465      5467
      5464      5463      5468      5469      5464      5463      5468      5470
      5464      5463      5468      5474      5465      5463      5468      5469
      5465      5463      5468      5470      5465      5463      5468      5474
      5466      5465      5463      5468      5467      5465      5463      5468
      5468      5474      5471      5472      5468      5474      5471      5473
      5468      5474      5471      5475      5469      5468      5474      5471
      5470      5468      5474      5471      5471      5475      5476      5477
      5471      5475      5476      5478      5471      5475      5476      5479
      5472      5471      5475      5476      5473      5471      5475      5476
      5474      5471      5475      5476      5475      5476      5479      5480
      5475      5476      5479      5481      5475      5476      5479      5487
      5476      5479      5481      5482      5476      5479      5487      5488
      5476      5479      5487      5489      5476      5479      5487      5490
      5477      5476      5479      5480      5477      5476      5479      5481
      5477      5476      5479      5487      5478      5476      5479      5480
      5478      5476      5479      5481      5478      5476      5479      5487
      5479      5481      5482      5483      5479      5481      5482      5484
      5479      5487      5490      5491      5480      5479      5481      5482
      5480      5479      5487      5488      5480      5479      5487      5489
      5480      5479      5487      5490      5481      5479      5487      5488
      5481      5479      5487      5489      5481      5479      5487      5490
      5481      5482      5484      5485      5481      5482      5484      5486
      5481      5482      5484      5496      5482      5481      5479      5487
      5482      5484      5496      5497      5482      5484      5496      5498
      5482      5484      5496      5499      5483      5482      5484      5485
      5483      5482      5484      5486      5483      5482      5484      5496
      5484      5496      5499      5500      5484      5496      5499      5501
      5484      5496      5499      5502      5485      5484      5496      5497
      5485      5484      5496      5498      5485      5484      5496      5499
      5486      5484      5496      5497      5486      5484      5496      5498
      5486      5484      5496      5499      5487      5490      5491      5492
      5487      5490      5491      5493      5488      5487      5490      5491
      5489      5487      5490      5491      5490      5491      5493      5494
      5490      5491      5493      5495      5490      5491      5493      5543
      5491      5493      5543      5544      5491      5493      5543      5545
      5491      5493      5543      5546      5492      5491      5493      5494
      5492      5491      5493      5495      5492      5491      5493      5543
      5493      5543      5546      5547      5493      5543      5546      5548
      5493      5543      5546      5549      5494      5493      5543      5544
      5494      5493      5543      5545      5494      5493      5543      5546
      5495      5493      5543      5544      5495      5493      5543      5545
      5495      5493      5543      5546      5496      5499      5502      5503
      5496      5499      5502      5504      5497      5496      5499      5500
      5497      5496      5499      5501      5497      5496      5499      5502
      5498      5496      5499      5500      5498      5496      5499      5501
      5498      5496      5499      5502      5499      5502      5504      5505
      5499      5502      5504      5506      5500      5499      5502      5503
      5500      5499      5502      5504      5501      5499      5502      5503
      5501      5499      5502      5504      5502      5504      5506      5507
      5502      5504      5506      5508      5502      5504      5506      5509
      5503      5502      5504      5505      5503      5502      5504      5506
      5504      5506      5509      5510      5504      5506      5509      5511
      5505      5504      5506      5507      5505      5504      5506      5508
      5505      5504      5506      5509      5506      5509      5511      5512
      5506      5509      5511      5513      5507      5506      5509      5510
      5507      5506      5509      5511      5508      5506      5509      5510
      5508      5506      5509      5511      5509      5511      5513      5514
      5509      5511      5513      5515      5509      5511      5513      5516
      5510      5509      5511      5512      5510      5509      5511      5513
      5511      5513      5516      5517      5511      5513      5516      5518
      5512      5511      5513      5514      5512      5511      5513      5515
      5512      5511      5513      5516      5513      5516      5518      5519
      5513      5516      5518      5520      5514      5513      5516      5517
      5514      5513      5516      5518      5515      5513      5516      5517
      5515      5513      5516      5518      5516      5518      5520      5521
      5516      5518      5520      5522      5516      5518      5520      5523
      5517      5516      5518      5519      5517      5516      5518      5520
      5518      5520      5523      5524      5518      5520      5523      5525
      5519      5518      5520      5521      5519      5518      5520      5522
      5519      5518      5520      5523      5520      5523      5525      5526
      5520      5523      5525      5527      5521      5520      5523      5524
      5521      5520      5523      5525      5522      5520      5523      5524
      5522      5520      5523      5525      5523      5525      5527      5528
      5523      5525      5527      5529      5523      5525      5527      5530
      5524      5523      5525      5526      5524      5523      5525      5527
      5525      5527      5530      5531      5525      5527      5530      5532
      5525      5527      5530      5533      5526      5525      5527      5528
      5526      5525      5527      5529      5526      5525      5527      5530
      5527      5530      5533      5534      5527      5530      5533      5535
      5527      5530      5533      5536      5528      5527      5530      5531
      5528      5527      5530      5532      5528      5527      5530      5533
      5529      5527      5530      5531      5529      5527      5530      5532
      5529      5527      5530      5533      5530      5533      5536      5537
      5530      5533      5536      5538      5530      5533      5536      5539
      5531      5530      5533      5534      5531      5530      5533      5535
      5531      5530      5533      5536      5532      5530      5533      5534
      5532      5530      5533      5535      5532      5530      5533      5536
      5533      5536      5539      5540      5533      5536      5539      5541
      5533      5536      5539      5542      5534      5533      5536      5537
      5534      5533      5536      5538      5534      5533      5536      5539
      5535      5533      5536      5537      5535      5533      5536      5538
      5535      5533      5536      5539      5537      5536      5539      5540
      5537      5536      5539      5541      5537      5536      5539      5542
      5538      5536      5539      5540      5538      5536      5539      5541
      5538      5536      5539      5542      5543      5546      5549      5550
      5543      5546      5549      5551      5543      5546      5549      5552
      5544      5543      5546      5547      5544      5543      5546      5548
      5544      5543      5546      5549      5545      5543      5546      5547
      5545      5543      5546      5548      5545      5543      5546      5549
      5546      5549      5552      5553      5546      5549      5552      5554
      5546      5549      5552      5555      5547      5546      5549      5550
      5547      5546      5549      5551      5547      5546      5549      5552
      5548      5546      5549      5550      5548      5546      5549      5551
      5548      5546      5549      5552      5549      5552      5555      5556
      5549      5552      5555      5557      5549      5552      5555      5558
      5550      5549      5552      5553      5550      5549      5552      5554
      5550      5549      5552      5555      5551      5549      5552      5553
      5551      5549      5552      5554      5551      5549      5552      5555
      5552      5555      5558      5559      5552      5555      5558      5560
      5552      5555      5558      5561      5553      5552      5555      5556
      5553      5552      5555      5557      5553      5552      5555      5558
      5554      5552      5555      5556      5554      5552      5555      5557
      5554      5552      5555      5558      5555      5558      5561      5562
      5555      5558      5561      5563      5555      5558      5561      5564
      5556      5555      5558      5559      5556      5555      5558      5560
      5556      5555      5558      5561      5557      5555      5558      5559
      5557      5555      5558      5560      5557      5555      5558      5561
      5558      5561      5564      5565      5558      5561      5564      5566
      5558      5561      5564      5567      5559      5558      5561      5562
      5559      5558      5561      5563      5559      5558      5561      5564
      5560      5558      5561      5562      5560      5558      5561      5563
      5560      5558      5561      5564      5561      5564      5567      5568
      5561      5564      5567      5569      5561      5564      5567      5570
      5562      5561      5564      5565      5562      5561      5564      5566
      5562      5561      5564      5567      5563      5561      5564      5565
      5563      5561      5564      5566      5563      5561      5564      5567
      5564      5567      5570      5571      5564      5567      5570      5572
      5564      5567      5570      5573      5565      5564      5567      5568
      5565      5564      5567      5569      5565      5564      5567      5570
      5566      5564      5567      5568      5566      5564      5567      5569
      5566      5564      5567      5570      5567      5570      5573      5574
      5567      5570      5573      5575      5567      5570      5573      5576
      5568      5567      5570      5571      5568      5567      5570      5572
      5568      5567      5570      5573      5569      5567      5570      5571
      5569      5567      5570      5572      5569      5567      5570      5573
      5570      5573      5576      5577      5570      5573      5576      5578
      5570      5573      5576      5579      5571      5570      5573      5574
      5571      5570      5573      5575      5571      5570      5573      5576
      5572      5570      5573      5574      5572      5570      5573      5575
      5572      5570      5573      5576      5573      5576      5579      5580
      5573      5576      5579      5581      5573      5576      5579      5582
      5574      5573      5576      5577      5574      5573      5576      5578
      5574      5573      5576      5579      5575      5573      5576      5577
      5575      5573      5576      5578      5575      5573      5576      5579
      5576      5579      5582      5583      5576      5579      5582      5584
      5576      5579      5582      5585      5577      5576      5579      5580
      5577      5576      5579      5581      5577      5576      5579      5582
      5578      5576      5579      5580      5578      5576      5579      5581
      5578      5576      5579      5582      5579      5582      5585      5586
      5579      5582      5585      5587      5579      5582      5585      5588
      5580      5579      5582      5583      5580      5579      5582      5584
      5580      5579      5582      5585      5581      5579      5582      5583
      5581      5579      5582      5584      5581      5579      5582      5585
      5582      5585      5588      5589      5582      5585      5588      5590
      5582      5585      5588      5591      5583      5582      5585      5586
      5583      5582      5585      5587      5583      5582      5585      5588
      5584      5582      5585      5586      5584      5582      5585      5587
      5584      5582      5585      5588      5586      5585      5588      5589
      5586      5585      5588      5590      5586      5585      5588      5591
      5587      5585      5588      5589      5587      5585      5588      5590
      5587      5585      5588      5591      5592      5593      5608      5609
      5592      5593      5608      5610      5592      5593      5608      5614
      5593      5592      5596      5597      5593      5592      5596      5598
      5593      5592      5596      5599      5593      5592      5600      5601
      5593      5592      5600      5602      5593      5592      5600      5603
      5593      5592      5604      5605      5593      5592      5604      5606
      5593      5592      5604      5607      5593      5608      5614      5611
      5594      5593      5592      5596      5594      5593      5592      5600
      5594      5593      5592      5604      5594      5593      5608      5609
      5594      5593      5608      5610      5594      5593      5608      5614
      5595      5593      5592      5596      5595      5593      5592      5600
      5595      5593      5592      5604      5595      5593      5608      5609
      5595      5593      5608      5610      5595      5593      5608      5614
      5596      5592      5593      5608      5596      5592      5600      5601
      5596      5592      5600      5602      5596      5592      5600      5603
      5596      5592      5604      5605      5596      5592      5604      5606
      5596      5592      5604      5607      5597      5596      5592      5600
      5597      5596      5592      5604      5598      5596      5592      5600
      5598      5596      5592      5604      5599      5596      5592      5600
      5599      5596      5592      5604      5600      5592      5593      5608
      5600      5592      5604      5605      5600      5592      5604      5606
      5600      5592      5604      5607      5601      5600      5592      5604
      5602      5600      5592      5604      5603      5600      5592      5604
      5604      5592      5593      5608      5608      5614      5611      5612
      5608      5614      5611      5613      5608      5614      5611      5615
      5609      5608      5614      5611      5610      5608      5614      5611
      5611      5615      5616      5617      5611      5615      5616      5618
      5611      5615      5616      5619      5612      5611      5615      5616
      5613      5611      5615      5616      5614      5611      5615      5616
      5615      5616      5619      5620      5615      5616      5619      5621
      5615      5616      5619      5627      5616      5619      5621      5622
      5616      5619      5627      5628      5616      5619      5627      5629
      5616      5619      5627      5630      5617      5616      5619      5620
      5617      5616      5619      5621      5617      5616      5619      5627
      5618      5616      5619      5620      5618      5616      5619      5621
      5618      5616      5619      5627      5619      5621      5622      5623
      5619      5621      5622      5624      5619      5627      5630      5631
      5620      5619      5621      5622      5620      5619      5627      5628
      5620      5619      5627      5629      5620      5619      5627      5630
      5621      5619      5627      5628      5621      5619      5627      5629
      5621      5619      5627      5630      5621      5622      5624      5625
      5621      5622      5624      5626      5621      5622      5624      5636
      5622      5621      5619      5627      5622      5624      5636      5637
      5622      5624      5636      5638      5622      5624      5636      5639
      5623      5622      5624      5625      5623      5622      5624      5626
      5623      5622      5624      5636      5624      5636      5639      5640
      5624      5636      5639      5641      5624      5636      5639      5642
      5625      5624      5636      5637      5625      5624      5636      5638
      5625      5624      5636      5639      5626      5624      5636      5637
      5626      5624      5636      5638      5626      5624      5636      5639
      5627      5630      5631      5632      5627      5630      5631      5633
      5628      5627      5630      5631      5629      5627      5630      5631
      5630      5631      5633      5634      5630      5631      5633      5635
      5630      5631      5633      5683      5631      5633      5683      5684
      5631      5633      5683      5685      5631      5633      5683      5686
      5632      5631      5633      5634      5632      5631      5633      5635
      5632      5631      5633      5683      5633      5683      5686      5687
      5633      5683      5686      5688      5633      5683      5686      5689
      5634      5633      5683      5684      5634      5633      5683      5685
      5634      5633      5683      5686      5635      5633      5683      5684
      5635      5633      5683      5685      5635      5633      5683      5686
      5636      5639      5642      5643      5636      5639      5642      5644
      5636      5639      5642      5645      5637      5636      5639      5640
      5637      5636      5639      5641      5637      5636      5639      5642
      5638      5636      5639      5640      5638      5636      5639      5641
      5638      5636      5639      5642      5639      5642      5645      5646
      5639      5642      5645      5647      5639      5642      5645      5648
      5640      5639      5642      5643      5640      5639      5642      5644
      5640      5639      5642      5645      5641      5639      5642      5643
      5641      5639      5642      5644      5641      5639      5642      5645
      5642      5645      5648      5649      5642      5645      5648      5650
      5642      5645      5648      5651      5643      5642      5645      5646
      5643      5642      5645      5647      5643      5642      5645      5648
      5644      5642      5645      5646      5644      5642      5645      5647
      5644      5642      5645      5648      5645      5648      5651      5652
      5645      5648      5651      5653      5645      5648      5651      5654
      5646      5645      5648      5649      5646      5645      5648      5650
      5646      5645      5648      5651      5647      5645      5648      5649
      5647      5645      5648      5650      5647      5645      5648      5651
      5648      5651      5654      5655      5648      5651      5654      5656
      5649      5648      5651      5652      5649      5648      5651      5653
      5649      5648      5651      5654      5650      5648      5651      5652
      5650      5648      5651      5653      5650      5648      5651      5654
      5651      5654      5656      5657      5651      5654      5656      5658
      5652      5651      5654      5655      5652      5651      5654      5656
      5653      5651      5654      5655      5653      5651      5654      5656
      5654      5656      5658      5659      5654      5656      5658      5660
      5654      5656      5658      5661      5655      5654      5656      5657
      5655      5654      5656      5658      5656      5658      5661      5662
      5656      5658      5661      5663      5656      5658      5661      5664
      5657      5656      5658      5659      5657      5656      5658      5660
      5657      5656      5658      5661      5658      5661      5664      5665
      5658      5661      5664      5666      5658      5661      5664      5667
      5659      5658      5661      5662      5659      5658      5661      5663
      5659      5658      5661      5664      5660      5658      5661      5662
      5660      5658      5661      5663      5660      5658      5661      5664
      5661      5664      5667      5668      5661      5664      5667      5669
      5661      5664      5667      5670      5662      5661      5664      5665
      5662      5661      5664      5666      5662      5661      5664      5667
      5663      5661      5664      5665      5663      5661      5664      5666
      5663      5661      5664      5667      5664      5667      5670      5671
      5664      5667      5670      5672      5664      5667      5670      5673
      5665      5664      5667      5668      5665      5664      5667      5669
      5665      5664      5667      5670      5666      5664      5667      5668
      5666      5664      5667      5669      5666      5664      5667      5670
      5667      5670      5673      5674      5667      5670      5673      5675
      5667      5670      5673      5676      5668      5667      5670      5671
      5668      5667      5670      5672      5668      5667      5670      5673
      5669      5667      5670      5671      5669      5667      5670      5672
      5669      5667      5670      5673      5670      5673      5676      5677
      5670      5673      5676      5678      5670      5673      5676      5679
      5671      5670      5673      5674      5671      5670      5673      5675
      5671      5670      5673      5676      5672      5670      5673      5674
      5672      5670      5673      5675      5672      5670      5673      5676
      5673      5676      5679      5680      5673      5676      5679      5681
      5673      5676      5679      5682      5674      5673      5676      5677
      5674      5673      5676      5678      5674      5673      5676      5679
      5675      5673      5676      5677      5675      5673      5676      5678
      5675      5673      5676      5679      5677      5676      5679      5680
      5677      5676      5679      5681      5677      5676      5679      5682
      5678      5676      5679      5680      5678      5676      5679      5681
      5678      5676      5679      5682      5683      5686      5689      5690
      5683      5686      5689      5691      5683      5686      5689      5692
      5684      5683      5686      5687      5684      5683      5686      5688
      5684      5683      5686      5689      5685      5683      5686      5687
      5685      5683      5686      5688      5685      5683      5686      5689
      5686      5689      5692      5693      5686      5689      5692      5694
      5686      5689      5692      5695      5687      5686      5689      5690
      5687      5686      5689      5691      5687      5686      5689      5692
      5688      5686      5689      5690      5688      5686      5689      5691
      5688      5686      5689      5692      5689      5692      5695      5696
      5689      5692      5695      5697      5689      5692      5695      5698
      5690      5689      5692      5693      5690      5689      5692      5694
      5690      5689      5692      5695      5691      5689      5692      5693
      5691      5689      5692      5694      5691      5689      5692      5695
      5692      5695      5698      5699      5692      5695      5698      5700
      5692      5695      5698      5701      5693      5692      5695      5696
      5693      5692      5695      5697      5693      5692      5695      5698
      5694      5692      5695      5696      5694      5692      5695      5697
      5694      5692      5695      5698      5695      5698      5701      5702
      5695      5698      5701      5703      5695      5698      5701      5704
      5696      5695      5698      5699      5696      5695      5698      5700
      5696      5695      5698      5701      5697      5695      5698      5699
      5697      5695      5698      5700      5697      5695      5698      5701
      5698      5701      5704      5705      5698      5701      5704      5706
      5698      5701      5704      5707      5699      5698      5701      5702
      5699      5698      5701      5703      5699      5698      5701      5704
      5700      5698      5701      5702      5700      5698      5701      5703
      5700      5698      5701      5704      5701      5704      5707      5708
      5701      5704      5707      5709      5701      5704      5707      5710
      5702      5701      5704      5705      5702      5701      5704      5706
      5702      5701      5704      5707      5703      5701      5704      5705
      5703      5701      5704      5706      5703      5701      5704      5707
      5704      5707      5710      5711      5704      5707      5710      5712
      5704      5707      5710      5713      5705      5704      5707      5708
      5705      5704      5707      5709      5705      5704      5707      5710
      5706      5704      5707      5708      5706      5704      5707      5709
      5706      5704      5707      5710      5707      5710      5713      5714
      5707      5710      5713      5715      5707      5710      5713      5716
      5708      5707      5710      5711      5708      5707      5710      5712
      5708      5707      5710      5713      5709      5707      5710      5711
      5709      5707      5710      5712      5709      5707      5710      5713
      5710      5713      5716      5717      5710      5713      5716      5718
      5710      5713      5716      5719      5711      5710      5713      5714
      5711      5710      5713      5715      5711      5710      5713      5716
      5712      5710      5713      5714      5712      5710      5713      5715
      5712      5710      5713      5716      5713      5716      5719      5720
      5713      5716      5719      5721      5713      5716      5719      5722
      5714      5713      5716      5717      5714      5713      5716      5718
      5714      5713      5716      5719      5715      5713      5716      5717
      5715      5713      5716      5718      5715      5713      5716      5719
      5716      5719      5722      5723      5716      5719      5722      5724
      5716      5719      5722      5725      5717      5716      5719      5720
      5717      5716      5719      5721      5717      5716      5719      5722
      5718      5716      5719      5720      5718      5716      5719      5721
      5718      5716      5719      5722      5720      5719      5722      5723
      5720      5719      5722      5724      5720      5719      5722      5725
      5721      5719      5722      5723      5721      5719      5722      5724
      5721      5719      5722      5725      5726      5730      5732      5733
      5726      5730      5732      5734      5726      5730      5735      5736
      5726      5730      5735      5737      5726      5730      5735      5741
      5727      5726      5730      5731      5727      5726      5730      5732
      5727      5726      5730      5735      5728      5726      5730      5731
      5728      5726      5730      5732      5728      5726      5730      5735
      5729      5726      5730      5731      5729      5726      5730      5732
      5729      5726      5730      5735      5730      5735      5741      5738
      5731      5730      5732      5733      5731      5730      5732      5734
      5731      5730      5735      5736      5731      5730      5735      5737
      5731      5730      5735      5741      5732      5730      5735      5736
      5732      5730      5735      5737      5732      5730      5735      5741
      5733      5732      5730      5735      5734      5732      5730      5735
      5735      5741      5738      5739      5735      5741      5738      5740
      5735      5741      5738      5742      5736      5735      5741      5738
      5737      5735      5741      5738      5738      5742      5743      5744
      5738      5742      5743      5745      5738      5742      5743      5746
      5739      5738      5742      5743      5740      5738      5742      5743
      5741      5738      5742      5743      5742      5743      5746      5747
      5742      5743      5746      5748      5742      5743      5746      5754
      5743      5746      5748      5749      5743      5746      5754      5755
      5743      5746      5754      5756      5743      5746      5754      5757
      5744      5743      5746      5747      5744      5743      5746      5748
      5744      5743      5746      5754      5745      5743      5746      5747
      5745      5743      5746      5748      5745      5743      5746      5754
      5746      5748      5749      5750      5746      5748      5749      5751
      5746      5754      5757      5758      5747      5746      5748      5749
      5747      5746      5754      5755      5747      5746      5754      5756
      5747      5746      5754      5757      5748      5746      5754      5755
      5748      5746      5754      5756      5748      5746      5754      5757
      5748      5749      5751      5752      5748      5749      5751      5753
      5748      5749      5751      5763      5749      5748      5746      5754
      5749      5751      5763      5764      5749      5751      5763      5765
      5749      5751      5763      5766      5750      5749      5751      5752
      5750      5749      5751      5753      5750      5749      5751      5763
      5751      5763      5766      5767      5751      5763      5766      5768
      5751      5763      5766      5769      5752      5751      5763      5764
      5752      5751      5763      5765      5752      5751      5763      5766
      5753      5751      5763      5764      5753      5751      5763      5765
      5753      5751      5763      5766      5754      5757      5758      5759
      5754      5757      5758      5760      5755      5754      5757      5758
      5756      5754      5757      5758      5757      5758      5760      5761
      5757      5758      5760      5762      5757      5758      5760      5810
      5758      5760      5810      5811      5758      5760      5810      5812
      5758      5760      5810      5813      5759      5758      5760      5761
      5759      5758      5760      5762      5759      5758      5760      5810
      5760      5810      5813      5814      5760      5810      5813      5815
      5760      5810      5813      5816      5761      5760      5810      5811
      5761      5760      5810      5812      5761      5760      5810      5813
      5762      5760      5810      5811      5762      5760      5810      5812
      5762      5760      5810      5813      5763      5766      5769      5770
      5763      5766      5769      5771      5764      5763      5766      5767
      5764      5763      5766      5768      5764      5763      5766      5769
      5765      5763      5766      5767      5765      5763      5766      5768
      5765      5763      5766      5769      5766      5769      5771      5772
      5766      5769      5771      5773      5767      5766      5769      5770
      5767      5766      5769      5771      5768      5766      5769      5770
      5768      5766      5769      5771      5769      5771      5773      5774
      5769      5771      5773      5775      5769      5771      5773      5776
      5770      5769      5771      5772      5770      5769      5771      5773
      5771      5773      5776      5777      5771      5773      5776      5778
      5772      5771      5773      5774      5772      5771      5773      5775
      5772      5771      5773      5776      5773      5776      5778      5779
      5773      5776      5778      5780      5774      5773      5776      5777
      5774      5773      5776      5778      5775      5773      5776      5777
      5775      5773      5776      5778      5776      5778      5780      5781
      5776      5778      5780      5782      5776      5778      5780      5783
      5777      5776      5778      5779      5777      5776      5778      5780
      5778      5780      5783      5784      5778      5780      5783      5785
      5779      5778      5780      5781      5779      5778      5780      5782
      5779      5778      5780      5783      5780      5783      5785      5786
      5780      5783      5785      5787      5781      5780      5783      5784
      5781      5780      5783      5785      5782      5780      5783      5784
      5782      5780      5783      5785      5783      5785      5787      5788
      5783      5785      5787      5789      5783      5785      5787      5790
      5784      5783      5785      5786      5784      5783      5785      5787
      5785      5787      5790      5791      5785      5787      5790      5792
      5786      5785      5787      5788      5786      5785      5787      5789
      5786      5785      5787      5790      5787      5790      5792      5793
      5787      5790      5792      5794      5788      5787      5790      5791
      5788      5787      5790      5792      5789      5787      5790      5791
      5789      5787      5790      5792      5790      5792      5794      5795
      5790      5792      5794      5796      5790      5792      5794      5797
      5791      5790      5792      5793      5791      5790      5792      5794
      5792      5794      5797      5798      5792      5794      5797      5799
      5792      5794      5797      5800      5793      5792      5794      5795
      5793      5792      5794      5796      5793      5792      5794      5797
      5794      5797      5800      5801      5794      5797      5800      5802
      5794      5797      5800      5803      5795      5794      5797      5798
      5795      5794      5797      5799      5795      5794      5797      5800
      5796      5794      5797      5798      5796      5794      5797      5799
      5796      5794      5797      5800      5797      5800      5803      5804
      5797      5800      5803      5805      5797      5800      5803      5806
      5798      5797      5800      5801      5798      5797      5800      5802
      5798      5797      5800      5803      5799      5797      5800      5801
      5799      5797      5800      5802      5799      5797      5800      5803
      5800      5803      5806      5807      5800      5803      5806      5808
      5800      5803      5806      5809      5801      5800      5803      5804
      5801      5800      5803      5805      5801      5800      5803      5806
      5802      5800      5803      5804      5802      5800      5803      5805
      5802      5800      5803      5806      5804      5803      5806      5807
      5804      5803      5806      5808      5804      5803      5806      5809
      5805      5803      5806      5807      5805      5803      5806      5808
      5805      5803      5806      5809      5810      5813      5816      5817
      5810      5813      5816      5818      5810      5813      5816      5819
      5811      5810      5813      5814      5811      5810      5813      5815
      5811      5810      5813      5816      5812      5810      5813      5814
      5812      5810      5813      5815      5812      5810      5813      5816
      5813      5816      5819      5820      5813      5816      5819      5821
      5813      5816      5819      5822      5814      5813      5816      5817
      5814      5813      5816      5818      5814      5813      5816      5819
      5815      5813      5816      5817      5815      5813      5816      5818
      5815      5813      5816      5819      5816      5819      5822      5823
      5816      5819      5822      5824      5816      5819      5822      5825
      5817      5816      5819      5820      5817      5816      5819      5821
      5817      5816      5819      5822      5818      5816      5819      5820
      5818      5816      5819      5821      5818      5816      5819      5822
      5819      5822      5825      5826      5819      5822      5825      5827
      5819      5822      5825      5828      5820      5819      5822      5823
      5820      5819      5822      5824      5820      5819      5822      5825
      5821      5819      5822      5823      5821      5819      5822      5824
      5821      5819      5822      5825      5822      5825      5828      5829
      5822      5825      5828      5830      5822      5825      5828      5831
      5823      5822      5825      5826      5823      5822      5825      5827
      5823      5822      5825      5828      5824      5822      5825      5826
      5824      5822      5825      5827      5824      5822      5825      5828
      5825      5828      5831      5832      5825      5828      5831      5833
      5825      5828      5831      5834      5826      5825      5828      5829
      5826      5825      5828      5830      5826      5825      5828      5831
      5827      5825      5828      5829      5827      5825      5828      5830
      5827      5825      5828      5831      5828      5831      5834      5835
      5828      5831      5834      5836      5828      5831      5834      5837
      5829      5828      5831      5832      5829      5828      5831      5833
      5829      5828      5831      5834      5830      5828      5831      5832
      5830      5828      5831      5833      5830      5828      5831      5834
      5831      5834      5837      5838      5831      5834      5837      5839
      5831      5834      5837      5840      5832      5831      5834      5835
      5832      5831      5834      5836      5832      5831      5834      5837
      5833      5831      5834      5835      5833      5831      5834      5836
      5833      5831      5834      5837      5834      5837      5840      5841
      5834      5837      5840      5842      5834      5837      5840      5843
      5835      5834      5837      5838      5835      5834      5837      5839
      5835      5834      5837      5840      5836      5834      5837      5838
      5836      5834      5837      5839      5836      5834      5837      5840
      5837      5840      5843      5844      5837      5840      5843      5845
      5837      5840      5843      5846      5838      5837      5840      5841
      5838      5837      5840      5842      5838      5837      5840      5843
      5839      5837      5840      5841      5839      5837      5840      5842
      5839      5837      5840      5843      5840      5843      5846      5847
      5840      5843      5846      5848      5840      5843      5846      5849
      5841      5840      5843      5844      5841      5840      5843      5845
      5841      5840      5843      5846      5842      5840      5843      5844
      5842      5840      5843      5845      5842      5840      5843      5846
      5843      5846      5849      5850      5843      5846      5849      5851
      5843      5846      5849      5852      5844      5843      5846      5847
      5844      5843      5846      5848      5844      5843      5846      5849
      5845      5843      5846      5847      5845      5843      5846      5848
      5845      5843      5846      5849      5846      5849      5852      5853
      5846      5849      5852      5854      5846      5849      5852      5855
      5847      5846      5849      5850      5847      5846      5849      5851
      5847      5846      5849      5852      5848      5846      5849      5850
      5848      5846      5849      5851      5848      5846      5849      5852
      5849      5852      5855      5856      5849      5852      5855      5857
      5849      5852      5855      5858      5850      5849      5852      5853
      5850      5849      5852      5854      5850      5849      5852      5855
      5851      5849      5852      5853      5851      5849      5852      5854
      5851      5849      5852      5855      5853      5852      5855      5856
      5853      5852      5855      5857      5853      5852      5855      5858
      5854      5852      5855      5856      5854      5852      5855      5857
      5854      5852      5855      5858      5859      5872      5875      5876
      5859      5872      5875      5877      5859      5872      5875      5882
      5860      5859      5864      5865      5860      5859      5864      5866
      5860      5859      5864      5867      5860      5859      5868      5869
      5860      5859      5868      5870      5860      5859      5868      5871
      5860      5859      5872      5873      5860      5859      5872      5874
      5860      5859      5872      5875      5861      5860      5859      5864
      5861      5860      5859      5868      5861      5860      5859      5872
      5862      5860      5859      5864      5862      5860      5859      5868
      5862      5860      5859      5872      5863      5860      5859      5864
      5863      5860      5859      5868      5863      5860      5859      5872
      5864      5859      5868      5869      5864      5859      5868      5870
      5864      5859      5868      5871      5864      5859      5872      5873
      5864      5859      5872      5874      5864      5859      5872      5875
      5865      5864      5859      5868      5865      5864      5859      5872
      5866      5864      5859      5868      5866      5864      5859      5872
      5867      5864      5859      5868      5867      5864      5859      5872
      5868      5859      5872      5873      5868      5859      5872      5874
      5868      5859      5872      5875      5869      5868      5859      5872
      5870      5868      5859      5872      5871      5868      5859      5872
      5872      5875      5882      5878      5873      5872      5875      5876
      5873      5872      5875      5877      5873      5872      5875      5882
      5874      5872      5875      5876      5874      5872      5875      5877
      5874      5872      5875      5882      5875      5882      5878      5879
      5875      5882      5878      5880      5875      5882      5878      5881
      5876      5875      5882      5878      5877      5875      5882      5878
      5878      5881      5883      5884      5878      5881      5883      5885
      5878      5881      5883      5888      5879      5878      5881      5883
      5880      5878      5881      5883      5881      5883      5888      5886
      5881      5883      5888      5889      5881      5883      5888      5890
      5882      5878      5881      5883      5883      5888      5886      5887
      5883      5888      5886      5938      5883      5888      5890      5891
      5883      5888      5890      5892      5883      5888      5890      5894
      5884      5883      5888      5886      5884      5883      5888      5889
      5884      5883      5888      5890      5885      5883      5888      5886
      5885      5883      5888      5889      5885      5883      5888      5890
      5886      5888      5890      5891      5886      5888      5890      5892
      5886      5888      5890      5894      5886      5938      5940      5941
      5886      5938      5940      5942      5886      5938      5940      5943
      5887      5886      5888      5889      5887      5886      5888      5890
      5887      5886      5938      5939      5887      5886      5938      5940
      5888      5886      5938      5939      5888      5886      5938      5940
      5888      5890      5892      5893      5888      5890      5894      5895
      5888      5890      5894      5896      5889      5888      5886      5938
      5889      5888      5890      5891      5889      5888      5890      5892
      5889      5888      5890      5894      5890      5888      5886      5938
      5890      5894      5896      5897      5890      5894      5896      5898
      5891      5890      5892      5893      5891      5890      5894      5895
      5891      5890      5894      5896      5892      5890      5894      5895
      5892      5890      5894      5896      5893      5892      5890      5894
      5894      5896      5898      5899      5894      5896      5898      5900
      5894      5896      5898      5901      5895      5894      5896      5897
      5895      5894      5896      5898      5896      5898      5901      5902
      5896      5898      5901      5903      5896      5898      5901      5904
      5897      5896      5898      5899      5897      5896      5898      5900
      5897      5896      5898      5901      5898      5901      5904      5905
      5898      5901      5904      5906      5898      5901      5904      5907
      5899      5898      5901      5902      5899      5898      5901      5903
      5899      5898      5901      5904      5900      5898      5901      5902
      5900      5898      5901      5903      5900      5898      5901      5904
      5901      5904      5907      5908      5901      5904      5907      5909
      5901      5904      5907      5910      5902      5901      5904      5905
      5902      5901      5904      5906      5902      5901      5904      5907
      5903      5901      5904      5905      5903      5901      5904      5906
      5903      5901      5904      5907      5904      5907      5910      5911
      5904      5907      5910      5912      5904      5907      5910      5913
      5905      5904      5907      5908      5905      5904      5907      5909
      5905      5904      5907      5910      5906      5904      5907      5908
      5906      5904      5907      5909      5906      5904      5907      5910
      5907      5910      5913      5914      5907      5910      5913      5915
      5907      5910      5913      5916      5908      5907      5910      5911
      5908      5907      5910      5912      5908      5907      5910      5913
      5909      5907      5910      5911      5909      5907      5910      5912
      5909      5907      5910      5913      5910      5913      5916      5917
      5910      5913      5916      5918      5910      5913      5916      5919
      5911      5910      5913      5914      5911      5910      5913      5915
      5911      5910      5913      5916      5912      5910      5913      5914
      5912      5910      5913      5915      5912      5910      5913      5916
      5913      5916      5919      5920      5913      5916      5919      5921
      5913      5916      5919      5922      5914      5913      5916      5917
      5914      5913      5916      5918      5914      5913      5916      5919
      5915      5913      5916      5917      5915      5913      5916      5918
      5915      5913      5916      5919      5916      5919      5922      5923
      5916      5919      5922      5924      5916      5919      5922      5925
      5917      5916      5919      5920      5917      5916      5919      5921
      5917      5916      5919      5922      5918      5916      5919      5920
      5918      5916      5919      5921      5918      5916      5919      5922
      5919      5922      5925      5926      5919      5922      5925      5927
      5919      5922      5925      5928      5920      5919      5922      5923
      5920      5919      5922      5924      5920      5919      5922      5925
      5921      5919      5922      5923      5921      5919      5922      5924
      5921      5919      5922      5925      5922      5925      5928      5929
      5922      5925      5928      5930      5922      5925      5928      5931
      5923      5922      5925      5926      5923      5922      5925      5927
      5923      5922      5925      5928      5924      5922      5925      5926
      5924      5922      5925      5927      5924      5922      5925      5928
      5925      5928      5931      5932      5925      5928      5931      5933
      5925      5928      5931      5934      5926      5925      5928      5929
      5926      5925      5928      5930      5926      5925      5928      5931
      5927      5925      5928      5929      5927      5925      5928      5930
      5927      5925      5928      5931      5928      5931      5934      5935
      5928      5931      5934      5936      5928      5931      5934      5937
      5929      5928      5931      5932      5929      5928      5931      5933
      5929      5928      5931      5934      5930      5928      5931      5932
      5930      5928      5931      5933      5930      5928      5931      5934
      5932      5931      5934      5935      5932      5931      5934      5936
      5932      5931      5934      5937      5933      5931      5934      5935
      5933      5931      5934      5936      5933      5931      5934      5937
      5938      5940      5943      5944      5938      5940      5943      5945
      5938      5940      5943      5946      5939      5938      5940      5941
      5939      5938      5940      5942      5939      5938      5940      5943
      5940      5943      5946      5947      5940      5943      5946      5948
      5940      5943      5946      5949      5941      5940      5943      5944
      5941      5940      5943      5945      5941      5940      5943      5946
      5942      5940      5943      5944      5942      5940      5943      5945
      5942      5940      5943      5946      5943      5946      5949      5950
      5943      5946      5949      5951      5943      5946      5949      5952
      5944      5943      5946      5947      5944      5943      5946      5948
      5944      5943      5946      5949      5945      5943      5946      5947
      5945      5943      5946      5948      5945      5943      5946      5949
      5946      5949      5952      5953      5946      5949      5952      5954
      5946      5949      5952      5955      5947      5946      5949      5950
      5947      5946      5949      5951      5947      5946      5949      5952
      5948      5946      5949      5950      5948      5946      5949      5951
      5948      5946      5949      5952      5949      5952      5955      5956
      5949      5952      5955      5957      5949      5952      5955      5958
      5950      5949      5952      5953      5950      5949      5952      5954
      5950      5949      5952      5955      5951      5949      5952      5953
      5951      5949      5952      5954      5951      5949      5952      5955
      5952      5955      5958      5959      5952      5955      5958      5960
      5952      5955      5958      5961      5953      5952      5955      5956
      5953      5952      5955      5957      5953      5952      5955      5958
      5954      5952      5955      5956      5954      5952      5955      5957
      5954      5952      5955      5958      5955      5958      5961      5962
      5955      5958      5961      5963      5956      5955      5958      5959
      5956      5955      5958      5960      5956      5955      5958      5961
      5957      5955      5958      5959      5957      5955      5958      5960
      5957      5955      5958      5961      5958      5961      5963      5964
      5958      5961      5963      5965      5959      5958      5961      5962
      5959      5958      5961      5963      5960      5958      5961      5962
      5960      5958      5961      5963      5961      5963      5965      5966
      5961      5963      5965      5967      5961      5963      5965      5968
      5962      5961      5963      5964      5962      5961      5963      5965
      5963      5965      5968      5969      5963      5965      5968      5970
      5963      5965      5968      5971      5964      5963      5965      5966
      5964      5963      5965      5967      5964      5963      5965      5968
      5965      5968      5971      5972      5965      5968      5971      5973
      5965      5968      5971      5974      5966      5965      5968      5969
      5966      5965      5968      5970      5966      5965      5968      5971
      5967      5965      5968      5969      5967      5965      5968      5970
      5967      5965      5968      5971      5968      5971      5974      5975
      5968      5971      5974      5976      5968      5971      5974      5977
      5969      5968      5971      5972      5969      5968      5971      5973
      5969      5968      5971      5974      5970      5968      5971      5972
      5970      5968      5971      5973      5970      5968      5971      5974
      5971      5974      5977      5978      5971      5974      5977      5979
      5971      5974      5977      5980      5972      5971      5974      5975
      5972      5971      5974      5976      5972      5971      5974      5977
      5973      5971      5974      5975      5973      5971      5974      5976
      5973      5971      5974      5977      5974      5977      5980      5981
      5974      5977      5980      5982      5974      5977      5980      5983
      5975      5974      5977      5978      5975      5974      5977      5979
      5975      5974      5977      5980      5976      5974      5977      5978
      5976      5974      5977      5979      5976      5974      5977      5980
      5977      5980      5983      5984      5977      5980      5983      5985
      5977      5980      5983      5986      5978      5977      5980      5981
      5978      5977      5980      5982      5978      5977      5980      5983
      5979      5977      5980      5981      5979      5977      5980      5982
      5979      5977      5980      5983      5980      5983      5986      5987
      5980      5983      5986      5988      5980      5983      5986      5989
      5981      5980      5983      5984      5981      5980      5983      5985
      5981      5980      5983      5986      5982      5980      5983      5984
      5982      5980      5983      5985      5982      5980      5983      5986
      5984      5983      5986      5987      5984      5983      5986      5988
      5984      5983      5986      5989      5985      5983      5986      5987
      5985      5983      5986      5988      5985      5983      5986      5989
      5990      5994      5997      5998      5990      5994      5997      6028
      5990      6036      6033      6028      5990      6036      6033      6034
      5990      6036      6033      6035      5991      5990      5992      5993
      5991      5990      5994      5995      5991      5990      5994      5996
      5991      5990      5994      5997      5991      5990      6036      6033
      5991      5990      6036      6037      5991      5990      6036      6038
      5992      5990      5994      5995      5992      5990      5994      5996
      5992      5990      5994      5997      5992      5990      6036      6033
      5992      5990      6036      6037      5992      5990      6036      6038
      5993      5992      5990      5994      5993      5992      5990      6036
      5994      5990      6036      6033      5994      5990      6036      6037
      5994      5990      6036      6038      5994      5997      5998      5999
      5994      5997      5998      6000      5994      5997      6028      6026
      5994      5997      6028      6029      5994      5997      6028      6033
      5995      5994      5990      6036      5995      5994      5997      5998
      5995      5994      5997      6028      5996      5994      5990      6036
      5996      5994      5997      5998      5996      5994      5997      6028
      5997      5994      5990      6036      5997      5998      6000      6001
      5997      5998      6000      6002      5997      5998      6000      6003
      5997      6028      6026      6003      5997      6028      6026      6023
      5997      6028      6026      6027      5997      6028      6029      6030
      5997      6028      6029      6031      5997      6028      6029      6032
      5997      6028      6033      6034      5997      6028      6033      6035
      5997      6028      6033      6036      5998      5997      6028      6026
      5998      5997      6028      6029      5998      5997      6028      6033
      5998      6000      6003      6004      5998      6000      6003      6005
      5998      6000      6003      6026      5999      5998      5997      6028
      5999      5998      6000      6001      5999      5998      6000      6002
      5999      5998      6000      6003      6000      5998      5997      6028
      6000      6003      6005      6006      6000      6003      6005      6007
      6000      6003      6005      6015      6000      6003      6026      6023
      6000      6003      6026      6027      6000      6003      6026      6028
      6001      6000      6003      6004      6001      6000      6003      6005
      6001      6000      6003      6026      6002      6000      6003      6004
      6002      6000      6003      6005      6002      6000      6003      6026
      6003      6005      6007      6008      6003      6005      6007      6009
      6003      6005      6007      6010      6003      6005      6015      6013
      6003      6005      6015      6016      6003      6005      6015      6020
      6003      6026      6023      6020      6003      6026      6023      6024
      6003      6026      6023      6025      6003      6026      6028      6029
      6003      6026      6028      6033      6004      6003      6005      6006
      6004      6003      6005      6007      6004      6003      6005      6015
      6004      6003      6026      6023      6004      6003      6026      6027
      6004      6003      6026      6028      6005      6003      6026      6023
      6005      6003      6026      6027      6005      6003      6026      6028
      6005      6007      6010      6011      6005      6007      6010      6012
      6005      6007      6010      6013      6005      6015      6013      6010
      6005      6015      6013      6014      6005      6015      6013      6039
      6005      6015      6016      6017      6005      6015      6016      6018
      6005      6015      6016      6019      6005      6015      6020      6021
      6005      6015      6020      6022      6005      6015      6020      6023
      6006      6005      6003      6026      6006      6005      6007      6008
      6006      6005      6007      6009      6006      6005      6007      6010
      6006      6005      6015      6013      6006      6005      6015      6016
      6006      6005      6015      6020      6007      6005      6003      6026
      6007      6005      6015      6013      6007      6005      6015      6016
      6007      6005      6015      6020      6007      6010      6013      6014
      6007      6010      6013      6015      6007      6010      6013      6039
      6008      6007      6005      6015      6008      6007      6010      6011
      6008      6007      6010      6012      6008      6007      6010      6013
      6009      6007      6005      6015      6009      6007      6010      6011
      6009      6007      6010      6012      6009      6007      6010      6013
      6010      6007      6005      6015      6010      6013      6015      6016
      6010      6013      6015      6020      6010      6013      6039      6040
      6010      6013      6039      6041      6010      6013      6039      6045
      6011      6010      6013      6014      6011      6010      6013      6015
      6011      6010      6013      6039      6012      6010      6013      6014
      6012      6010      6013      6015      6012      6010      6013      6039
      6013      6015      6016      6017      6013      6015      6016      6018
      6013      6015      6016      6019      6013      6015      6020      6021
      6013      6015      6020      6022      6013      6015      6020      6023
      6013      6039      6041      6042      6013      6039      6041      6043
      6013      6039      6041      6044      6013      6039      6045      6046
      6013      6039      6045      6047      6013      6039      6045      6048
      6014      6013      6015      6016      6014      6013      6015      6020
      6014      6013      6039      6040      6014      6013      6039      6041
      6014      6013      6039      6045      6015      6005      6003      6026
      6015      6013      6039      6040      6015      6013      6039      6041
      6015      6013      6039      6045      6015      6020      6023      6024
      6015      6020      6023      6025      6015      6020      6023      6026
      6016      6015      6013      6039      6016      6015      6020      6021
      6016      6015      6020      6022      6016      6015      6020      6023
      6017      6016      6015      6020      6018      6016      6015      6020
      6019      6016      6015      6020      6020      6015      6013      6039
      6020      6023      6026      6027      6020      6023      6026      6028
      6021      6020      6023      6024      6021      6020      6023      6025
      6021      6020      6023      6026      6022      6020      6023      6024
      6022      6020      6023      6025      6022      6020      6023      6026
      6023      6026      6028      6029      6023      6026      6028      6033
      6024      6023      6026      6027      6024      6023      6026      6028
      6025      6023      6026      6027      6025      6023      6026      6028
      6026      6028      6029      6030      6026      6028      6029      6031
      6026      6028      6029      6032      6026      6028      6033      6034
      6026      6028      6033      6035      6026      6028      6033      6036
      6027      6026      6028      6029      6027      6026      6028      6033
      6028      6033      6036      6037      6028      6033      6036      6038
      6029      6028      6033      6034      6029      6028      6033      6035
      6029      6028      6033      6036      6030      6029      6028      6033
      6031      6029      6028      6033      6032      6029      6028      6033
      6034      6033      6036      6037      6034      6033      6036      6038
      6035      6033      6036      6037      6035      6033      6036      6038
      6039      6045      6048      6049      6039      6045      6048      6050
      6039      6045      6048      6051      6040      6039      6041      6042
      6040      6039      6041      6043      6040      6039      6041      6044
      6040      6039      6045      6046      6040      6039      6045      6047
      6040      6039      6045      6048      6041      6039      6045      6046
      6041      6039      6045      6047      6041      6039      6045      6048
      6042      6041      6039      6045      6043      6041      6039      6045
      6044      6041      6039      6045      6045      6048      6051      6052
      6045      6048      6051      6053      6045      6048      6051      6054
      6046      6045      6048      6049      6046      6045      6048      6050
      6046      6045      6048      6051      6047      6045      6048      6049
      6047      6045      6048      6050      6047      6045      6048      6051
      6048      6051      6054      6055      6048      6051      6054      6056
      6048      6051      6054      6060      6049      6048      6051      6052
      6049      6048      6051      6053      6049      6048      6051      6054
      6050      6048      6051      6052      6050      6048      6051      6053
      6050      6048      6051      6054      6051      6054      6056      6057
      6051      6054      6056      6058      6051      6054      6056      6059
      6051      6054      6060      6061      6051      6054      6060      6062
      6051      6054      6060      6063      6052      6051      6054      6055
      6052      6051      6054      6056      6052      6051      6054      6060
      6053      6051      6054      6055      6053      6051      6054      6056
      6053      6051      6054      6060      6055      6054      6056      6057
      6055      6054      6056      6058      6055      6054      6056      6059
      6055      6054      6060      6061      6055      6054      6060      6062
      6055      6054      6060      6063      6056      6054      6060      6061
      6056      6054      6060      6062      6056      6054      6060      6063
      6057      6056      6054      6060      6058      6056      6054      6060
      6059      6056      6054      6060      6064      6068      6071      6072
      6064      6068      6071      6102      6064      6110      6107      6102
      6064      6110      6107      6108      6064      6110      6107      6109
      6065      6064      6066      6067      6065      6064      6068      6069
      6065      6064      6068      6070      6065      6064      6068      6071
      6065      6064      6110      6107      6065      6064      6110      6111
      6065      6064      6110      6112      6066      6064      6068      6069
      6066      6064      6068      6070      6066      6064      6068      6071
      6066      6064      6110      6107      6066      6064      6110      6111
      6066      6064      6110      6112      6067      6066      6064      6068
      6067      6066      6064      6110      6068      6064      6110      6107
      6068      6064      6110      6111      6068      6064      6110      6112
      6068      6071      6072      6073      6068      6071      6072      6074
      6068      6071      6102      6100      6068      6071      6102      6103
      6068      6071      6102      6107      6069      6068      6064      6110
      6069      6068      6071      6072      6069      6068      6071      6102
      6070      6068      6064      6110      6070      6068      6071      6072
      6070      6068      6071      6102      6071      6068      6064      6110
      6071      6072      6074      6075      6071      6072      6074      6076
      6071      6072      6074      6077      6071      6102      6100      6077
      6071      6102      6100      6097      6071      6102      6100      6101
      6071      6102      6103      6104      6071      6102      6103      6105
      6071      6102      6103      6106      6071      6102      6107      6108
      6071      6102      6107      6109      6071      6102      6107      6110
      6072      6071      6102      6100      6072      6071      6102      6103
      6072      6071      6102      6107      6072      6074      6077      6078
      6072      6074      6077      6079      6072      6074      6077      6100
      6073      6072      6071      6102      6073      6072      6074      6075
      6073      6072      6074      6076      6073      6072      6074      6077
      6074      6072      6071      6102      6074      6077      6079      6080
      6074      6077      6079      6081      6074      6077      6079      6089
      6074      6077      6100      6097      6074      6077      6100      6101
      6074      6077      6100      6102      6075      6074      6077      6078
      6075      6074      6077      6079      6075      6074      6077      6100
      6076      6074      6077      6078      6076      6074      6077      6079
      6076      6074      6077      6100      6077      6079      6081      6082
      6077      6079      6081      6083      6077      6079      6081      6084
      6077      6079      6089      6087      6077      6079      6089      6090
      6077      6079      6089      6094      6077      6100      6097      6094
      6077      6100      6097      6098      6077      6100      6097      6099
      6077      6100      6102      6103      6077      6100      6102      6107
      6078      6077      6079      6080      6078      6077      6079      6081
      6078      6077      6079      6089      6078      6077      6100      6097
      6078      6077      6100      6101      6078      6077      6100      6102
      6079      6077      6100      6097      6079      6077      6100      6101
      6079      6077      6100      6102      6079      6081      6084      6085
      6079      6081      6084      6086      6079      6081      6084      6087
      6079      6089      6087      6084      6079      6089      6087      6088
      6079      6089      6087      6113      6079      6089      6090      6091
      6079      6089      6090      6092      6079      6089      6090      6093
      6079      6089      6094      6095      6079      6089      6094      6096
      6079      6089      6094      6097      6080      6079      6077      6100
      6080      6079      6081      6082      6080      6079      6081      6083
      6080      6079      6081      6084      6080      6079      6089      6087
      6080      6079      6089      6090      6080      6079      6089      6094
      6081      6079      6077      6100      6081      6079      6089      6087
      6081      6079      6089      6090      6081      6079      6089      6094
      6081      6084      6087      6088      6081      6084      6087      6089
      6081      6084      6087      6113      6082      6081      6079      6089
      6082      6081      6084      6085      6082      6081      6084      6086
      6082      6081      6084      6087      6083      6081      6079      6089
      6083      6081      6084      6085      6083      6081      6084      6086
      6083      6081      6084      6087      6084      6081      6079      6089
      6084      6087      6089      6090      6084      6087      6089      6094
      6084      6087      6113      6114      6084      6087      6113      6115
      6084      6087      6113      6119      6085      6084      6087      6088
      6085      6084      6087      6089      6085      6084      6087      6113
      6086      6084      6087      6088      6086      6084      6087      6089
      6086      6084      6087      6113      6087      6089      6090      6091
      6087      6089      6090      6092      6087      6089      6090      6093
      6087      6089      6094      6095      6087      6089      6094      6096
      6087      6089      6094      6097      6087      6113      6115      6116
      6087      6113      6115      6117      6087      6113      6115      6118
      6087      6113      6119      6120      6087      6113      6119      6121
      6087      6113      6119      6122      6088      6087      6089      6090
      6088      6087      6089      6094      6088      6087      6113      6114
      6088      6087      6113      6115      6088      6087      6113      6119
      6089      6079      6077      6100      6089      6087      6113      6114
      6089      6087      6113      6115      6089      6087      6113      6119
      6089      6094      6097      6098      6089      6094      6097      6099
      6089      6094      6097      6100      6090      6089      6087      6113
      6090      6089      6094      6095      6090      6089      6094      6096
      6090      6089      6094      6097      6091      6090      6089      6094
      6092      6090      6089      6094      6093      6090      6089      6094
      6094      6089      6087      6113      6094      6097      6100      6101
      6094      6097      6100      6102      6095      6094      6097      6098
      6095      6094      6097      6099      6095      6094      6097      6100
      6096      6094      6097      6098      6096      6094      6097      6099
      6096      6094      6097      6100      6097      6100      6102      6103
      6097      6100      6102      6107      6098      6097      6100      6101
      6098      6097      6100      6102      6099      6097      6100      6101
      6099      6097      6100      6102      6100      6102      6103      6104
      6100      6102      6103      6105      6100      6102      6103      6106
      6100      6102      6107      6108      6100      6102      6107      6109
      6100      6102      6107      6110      6101      6100      6102      6103
      6101      6100      6102      6107      6102      6107      6110      6111
      6102      6107      6110      6112      6103      6102      6107      6108
      6103      6102      6107      6109      6103      6102      6107      6110
      6104      6103      6102      6107      6105      6103      6102      6107
      6106      6103      6102      6107      6108      6107      6110      6111
      6108      6107      6110      6112      6109      6107      6110      6111
      6109      6107      6110      6112      6113      6119      6122      6123
      6113      6119      6122      6124      6113      6119      6122      6125
      6114      6113      6115      6116      6114      6113      6115      6117
      6114      6113      6115      6118      6114      6113      6119      6120
      6114      6113      6119      6121      6114      6113      6119      6122
      6115      6113      6119      6120      6115      6113      6119      6121
      6115      6113      6119      6122      6116      6115      6113      6119
      6117      6115      6113      6119      6118      6115      6113      6119
      6119      6122      6125      6126      6119      6122      6125      6127
      6119      6122      6125      6128      6120      6119      6122      6123
      6120      6119      6122      6124      6120      6119      6122      6125
      6121      6119      6122      6123      6121      6119      6122      6124
      6121      6119      6122      6125      6122      6125      6128      6129
      6122      6125      6128      6130      6122      6125      6128      6134
      6123      6122      6125      6126      6123      6122      6125      6127
      6123      6122      6125      6128      6124      6122      6125      6126
      6124      6122      6125      6127      6124      6122      6125      6128
      6125      6128      6130      6131      6125      6128      6130      6132
      6125      6128      6130      6133      6125      6128      6134      6135
      6125      6128      6134      6136      6125      6128      6134      6137
      6126      6125      6128      6129      6126      6125      6128      6130
      6126      6125      6128      6134      6127      6125      6128      6129
      6127      6125      6128      6130      6127      6125      6128      6134
      6129      6128      6130      6131      6129      6128      6130      6132
      6129      6128      6130      6133      6129      6128      6134      6135
      6129      6128      6134      6136      6129      6128      6134      6137
      6130      6128      6134      6135      6130      6128      6134      6136
      6130      6128      6134      6137      6131      6130      6128      6134
      6132      6130      6128      6134      6133      6130      6128      6134
      6138      6142      6145      6146      6138      6142      6145      6176
      6138      6184      6181      6176      6138      6184      6181      6182
      6138      6184      6181      6183      6139      6138      6140      6141
      6139      6138      6142      6143      6139      6138      6142      6144
      6139      6138      6142      6145      6139      6138      6184      6181
      6139      6138      6184      6185      6139      6138      6184      6186
      6140      6138      6142      6143      6140      6138      6142      6144
      6140      6138      6142      6145      6140      6138      6184      6181
      6140      6138      6184      6185      6140      6138      6184      6186
      6141      6140      6138      6142      6141      6140      6138      6184
      6142      6138      6184      6181      6142      6138      6184      6185
      6142      6138      6184      6186      6142      6145      6146      6147
      6142      6145      6146      6148      6142      6145      6176      6174
      6142      6145      6176      6177      6142      6145      6176      6181
      6143      6142      6138      6184      6143      6142      6145      6146
      6143      6142      6145      6176      6144      6142      6138      6184
      6144      6142      6145      6146      6144      6142      6145      6176
      6145      6142      6138      6184      6145      6146      6148      6149
      6145      6146      6148      6150      6145      6146      6148      6151
      6145      6176      6174      6151      6145      6176      6174      6171
      6145      6176      6174      6175      6145      6176      6177      6178
      6145      6176      6177      6179      6145      6176      6177      6180
      6145      6176      6181      6182      6145      6176      6181      6183
      6145      6176      6181      6184      6146      6145      6176      6174
      6146      6145      6176      6177      6146      6145      6176      6181
      6146      6148      6151      6152      6146      6148      6151      6153
      6146      6148      6151      6174      6147      6146      6145      6176
      6147      6146      6148      6149      6147      6146      6148      6150
      6147      6146      6148      6151      6148      6146      6145      6176
      6148      6151      6153      6154      6148      6151      6153      6155
      6148      6151      6153      6163      6148      6151      6174      6171
      6148      6151      6174      6175      6148      6151      6174      6176
      6149      6148      6151      6152      6149      6148      6151      6153
      6149      6148      6151      6174      6150      6148      6151      6152
      6150      6148      6151      6153      6150      6148      6151      6174
      6151      6153      6155      6156      6151      6153      6155      6157
      6151      6153      6155      6158      6151      6153      6163      6161
      6151      6153      6163      6164      6151      6153      6163      6168
      6151      6174      6171      6168      6151      6174      6171      6172
      6151      6174      6171      6173      6151      6174      6176      6177
      6151      6174      6176      6181      6152      6151      6153      6154
      6152      6151      6153      6155      6152      6151      6153      6163
      6152      6151      6174      6171      6152      6151      6174      6175
      6152      6151      6174      6176      6153      6151      6174      6171
      6153      6151      6174      6175      6153      6151      6174      6176
      6153      6155      6158      6159      6153      6155      6158      6160
      6153      6155      6158      6161      6153      6163      6161      6158
      6153      6163      6161      6162      6153      6163      6161      6187
      6153      6163      6164      6165      6153      6163      6164      6166
      6153      6163      6164      6167      6153      6163      6168      6169
      6153      6163      6168      6170      6153      6163      6168      6171
      6154      6153      6151      6174      6154      6153      6155      6156
      6154      6153      6155      6157      6154      6153      6155      6158
      6154      6153      6163      6161      6154      6153      6163      6164
      6154      6153      6163      6168      6155      6153      6151      6174
      6155      6153      6163      6161      6155      6153      6163      6164
      6155      6153      6163      6168      6155      6158      6161      6162
      6155      6158      6161      6163      6155      6158      6161      6187
      6156      6155      6153      6163      6156      6155      6158      6159
      6156      6155      6158      6160      6156      6155      6158      6161
      6157      6155      6153      6163      6157      6155      6158      6159
      6157      6155      6158      6160      6157      6155      6158      6161
      6158      6155      6153      6163      6158      6161      6163      6164
      6158      6161      6163      6168      6158      6161      6187      6188
      6158      6161      6187      6189      6158      6161      6187      6193
      6159      6158      6161      6162      6159      6158      6161      6163
      6159      6158      6161      6187      6160      6158      6161      6162
      6160      6158      6161      6163      6160      6158      6161      6187
      6161      6163      6164      6165      6161      6163      6164      6166
      6161      6163      6164      6167      6161      6163      6168      6169
      6161      6163      6168      6170      6161      6163      6168      6171
      6161      6187      6189      6190      6161      6187      6189      6191
      6161      6187      6189      6192      6161      6187      6193      6194
      6161      6187      6193      6195      6161      6187      6193      6196
      6162      6161      6163      6164      6162      6161      6163      6168
      6162      6161      6187      6188      6162      6161      6187      6189
      6162      6161      6187      6193      6163      6153      6151      6174
      6163      6161      6187      6188      6163      6161      6187      6189
      6163      6161      6187      6193      6163      6168      6171      6172
      6163      6168      6171      6173      6163      6168      6171      6174
      6164      6163      6161      6187      6164      6163      6168      6169
      6164      6163      6168      6170      6164      6163      6168      6171
      6165      6164      6163      6168      6166      6164      6163      6168
      6167      6164      6163      6168      6168      6163      6161      6187
      6168      6171      6174      6175      6168      6171      6174      6176
      6169      6168      6171      6172      6169      6168      6171      6173
      6169      6168      6171      6174      6170      6168      6171      6172
      6170      6168      6171      6173      6170      6168      6171      6174
      6171      6174      6176      6177      6171      6174      6176      6181
      6172      6171      6174      6175      6172      6171      6174      6176
      6173      6171      6174      6175      6173      6171      6174      6176
      6174      6176      6177      6178      6174      6176      6177      6179
      6174      6176      6177      6180      6174      6176      6181      6182
      6174      6176      6181      6183      6174      6176      6181      6184
      6175      6174      6176      6177      6175      6174      6176      6181
      6176      6181      6184      6185      6176      6181      6184      6186
      6177      6176      6181      6182      6177      6176      6181      6183
      6177      6176      6181      6184      6178      6177      6176      6181
      6179      6177      6176      6181      6180      6177      6176      6181
      6182      6181      6184      6185      6182      6181      6184      6186
      6183      6181      6184      6185      6183      6181      6184      6186
      6187      6193      6196      6197      6187      6193      6196      6198
      6187      6193      6196      6199      6188      6187      6189      6190
      6188      6187      6189      6191      6188      6187      6189      6192
      6188      6187      6193      6194      6188      6187      6193      6195
      6188      6187      6193      6196      6189      6187      6193      6194
      6189      6187      6193      6195      6189      6187      6193      6196
      6190      6189      6187      6193      6191      6189      6187      6193
      6192      6189      6187      6193      6193      6196      6199      6200
      6193      6196      6199      6201      6193      6196      6199      6202
      6194      6193      6196      6197      6194      6193      6196      6198
      6194      6193      6196      6199      6195      6193      6196      6197
      6195      6193      6196      6198      6195      6193      6196      6199
      6196      6199      6202      6203      6196      6199      6202      6204
      6196      6199      6202      6208      6197      6196      6199      6200
      6197      6196      6199      6201      6197      6196      6199      6202
      6198      6196      6199      6200      6198      6196      6199      6201
      6198      6196      6199      6202      6199      6202      6204      6205
      6199      6202      6204      6206      6199      6202      6204      6207
      6199      6202      6208      6209      6199      6202      6208      6210
      6199      6202      6208      6211      6200      6199      6202      6203
      6200      6199      6202      6204      6200      6199      6202      6208
      6201      6199      6202      6203      6201      6199      6202      6204
      6201      6199      6202      6208      6203      6202      6204      6205
      6203      6202      6204      6206      6203      6202      6204      6207
      6203      6202      6208      6209      6203      6202      6208      6210
      6203      6202      6208      6211      6204      6202      6208      6209
      6204      6202      6208      6210      6204      6202      6208      6211
      6205      6204      6202      6208      6206      6204      6202      6208
      6207      6204      6202      6208      6212      6213      6228      6229
      6212      6213      6228      6230      6212      6213      6228      6234
      6213      6212      6216      6217      6213      6212      6216      6218
      6213      6212      6216      6219      6213      6212      6220      6221
      6213      6212      6220      6222      6213      6212      6220      6223
      6213      6212      6224      6225      6213      6212      6224      6226
      6213      6212      6224      6227      6213      6228      6234      6231
      6214      6213      6212      6216      6214      6213      6212      6220
      6214      6213      6212      6224      6214      6213      6228      6229
      6214      6213      6228      6230      6214      6213      6228      6234
      6215      6213      6212      6216      6215      6213      6212      6220
      6215      6213      6212      6224      6215      6213      6228      6229
      6215      6213      6228      6230      6215      6213      6228      6234
      6216      6212      6213      6228      6216      6212      6220      6221
      6216      6212      6220      6222      6216      6212      6220      6223
      6216      6212      6224      6225      6216      6212      6224      6226
      6216      6212      6224      6227      6217      6216      6212      6220
      6217      6216      6212      6224      6218      6216      6212      6220
      6218      6216      6212      6224      6219      6216      6212      6220
      6219      6216      6212      6224      6220      6212      6213      6228
      6220      6212      6224      6225      6220      6212      6224      6226
      6220      6212      6224      6227      6221      6220      6212      6224
      6222      6220      6212      6224      6223      6220      6212      6224
      6224      6212      6213      6228      6228      6234      6231      6232
      6228      6234      6231      6233      6228      6234      6231      6235
      6229      6228      6234      6231      6230      6228      6234      6231
      6231      6235      6236      6237      6231      6235      6236      6238
      6231      6235      6236      6239      6232      6231      6235      6236
      6233      6231      6235      6236      6234      6231      6235      6236
      6235      6236      6239      6240      6235      6236      6239      6241
      6235      6236      6239      6247      6236      6239      6241      6242
      6236      6239      6247      6248      6236      6239      6247      6249
      6236      6239      6247      6250      6237      6236      6239      6240
      6237      6236      6239      6241      6237      6236      6239      6247
      6238      6236      6239      6240      6238      6236      6239      6241
      6238      6236      6239      6247      6239      6241      6242      6243
      6239      6241      6242      6244      6239      6247      6250      6251
      6240      6239      6241      6242      6240      6239      6247      6248
      6240      6239      6247      6249      6240      6239      6247      6250
      6241      6239      6247      6248      6241      6239      6247      6249
      6241      6239      6247      6250      6241      6242      6244      6245
      6241      6242      6244      6246      6241      6242      6244      6256
      6242      6241      6239      6247      6242      6244      6256      6257
      6242      6244      6256      6258      6242      6244      6256      6259
      6243      6242      6244      6245      6243      6242      6244      6246
      6243      6242      6244      6256      6244      6256      6259      6260
      6244      6256      6259      6261      6244      6256      6259      6262
      6245      6244      6256      6257      6245      6244      6256      6258
      6245      6244      6256      6259      6246      6244      6256      6257
      6246      6244      6256      6258      6246      6244      6256      6259
      6247      6250      6251      6252      6247      6250      6251      6253
      6248      6247      6250      6251      6249      6247      6250      6251
      6250      6251      6253      6254      6250      6251      6253      6255
      6250      6251      6253      6303      6251      6253      6303      6304
      6251      6253      6303      6305      6251      6253      6303      6306
      6252      6251      6253      6254      6252      6251      6253      6255
      6252      6251      6253      6303      6253      6303      6306      6307
      6253      6303      6306      6308      6253      6303      6306      6309
      6254      6253      6303      6304      6254      6253      6303      6305
      6254      6253      6303      6306      6255      6253      6303      6304
      6255      6253      6303      6305      6255      6253      6303      6306
      6256      6259      6262      6263      6256      6259      6262      6264
      6256      6259      6262      6265      6257      6256      6259      6260
      6257      6256      6259      6261      6257      6256      6259      6262
      6258      6256      6259      6260      6258      6256      6259      6261
      6258      6256      6259      6262      6259      6262      6265      6266
      6259      6262      6265      6267      6259      6262      6265      6268
      6260      6259      6262      6263      6260      6259      6262      6264
      6260      6259      6262      6265      6261      6259      6262      6263
      6261      6259      6262      6264      6261      6259      6262      6265
      6262      6265      6268      6269      6262      6265      6268      6270
      6262      6265      6268      6271      6263      6262      6265      6266
      6263      6262      6265      6267      6263      6262      6265      6268
      6264      6262      6265      6266      6264      6262      6265      6267
      6264      6262      6265      6268      6265      6268      6271      6272
      6265      6268      6271      6273      6265      6268      6271      6274
      6266      6265      6268      6269      6266      6265      6268      6270
      6266      6265      6268      6271      6267      6265      6268      6269
      6267      6265      6268      6270      6267      6265      6268      6271
      6268      6271      6274      6275      6268      6271      6274      6276
      6269      6268      6271      6272      6269      6268      6271      6273
      6269      6268      6271      6274      6270      6268      6271      6272
      6270      6268      6271      6273      6270      6268      6271      6274
      6271      6274      6276      6277      6271      6274      6276      6278
      6272      6271      6274      6275      6272      6271      6274      6276
      6273      6271      6274      6275      6273      6271      6274      6276
      6274      6276      6278      6279      6274      6276      6278      6280
      6274      6276      6278      6281      6275      6274      6276      6277
      6275      6274      6276      6278      6276      6278      6281      6282
      6276      6278      6281      6283      6276      6278      6281      6284
      6277      6276      6278      6279      6277      6276      6278      6280
      6277      6276      6278      6281      6278      6281      6284      6285
      6278      6281      6284      6286      6278      6281      6284      6287
      6279      6278      6281      6282      6279      6278      6281      6283
      6279      6278      6281      6284      6280      6278      6281      6282
      6280      6278      6281      6283      6280      6278      6281      6284
      6281      6284      6287      6288      6281      6284      6287      6289
      6281      6284      6287      6290      6282      6281      6284      6285
      6282      6281      6284      6286      6282      6281      6284      6287
      6283      6281      6284      6285      6283      6281      6284      6286
      6283      6281      6284      6287      6284      6287      6290      6291
      6284      6287      6290      6292      6284      6287      6290      6293
      6285      6284      6287      6288      6285      6284      6287      6289
      6285      6284      6287      6290      6286      6284      6287      6288
      6286      6284      6287      6289      6286      6284      6287      6290
      6287      6290      6293      6294      6287      6290      6293      6295
      6287      6290      6293      6296      6288      6287      6290      6291
      6288      6287      6290      6292      6288      6287      6290      6293
      6289      6287      6290      6291      6289      6287      6290      6292
      6289      6287      6290      6293      6290      6293      6296      6297
      6290      6293      6296      6298      6290      6293      6296      6299
      6291      6290      6293      6294      6291      6290      6293      6295
      6291      6290      6293      6296      6292      6290      6293      6294
      6292      6290      6293      6295      6292      6290      6293      6296
      6293      6296      6299      6300      6293      6296      6299      6301
      6293      6296      6299      6302      6294      6293      6296      6297
      6294      6293      6296      6298      6294      6293      6296      6299
      6295      6293      6296      6297      6295      6293      6296      6298
      6295      6293      6296      6299      6297      6296      6299      6300
      6297      6296      6299      6301      6297      6296      6299      6302
      6298      6296      6299      6300      6298      6296      6299      6301
      6298      6296      6299      6302      6303      6306      6309      6310
      6303      6306      6309      6311      6303      6306      6309      6312
      6304      6303      6306      6307      6304      6303      6306      6308
      6304      6303      6306      6309      6305      6303      6306      6307
      6305      6303      6306      6308      6305      6303      6306      6309
      6306      6309      6312      6313      6306      6309      6312      6314
      6306      6309      6312      6315      6307      6306      6309      6310
      6307      6306      6309      6311      6307      6306      6309      6312
      6308      6306      6309      6310      6308      6306      6309      6311
      6308      6306      6309      6312      6309      6312      6315      6316
      6309      6312      6315      6317      6309      6312      6315      6318
      6310      6309      6312      6313      6310      6309      6312      6314
      6310      6309      6312      6315      6311      6309      6312      6313
      6311      6309      6312      6314      6311      6309      6312      6315
      6312      6315      6318      6319      6312      6315      6318      6320
      6312      6315      6318      6321      6313      6312      6315      6316
      6313      6312      6315      6317      6313      6312      6315      6318
      6314      6312      6315      6316      6314      6312      6315      6317
      6314      6312      6315      6318      6315      6318      6321      6322
      6315      6318      6321      6323      6315      6318      6321      6324
      6316      6315      6318      6319      6316      6315      6318      6320
      6316      6315      6318      6321      6317      6315      6318      6319
      6317      6315      6318      6320      6317      6315      6318      6321
      6318      6321      6324      6325      6318      6321      6324      6326
      6318      6321      6324      6327      6319      6318      6321      6322
      6319      6318      6321      6323      6319      6318      6321      6324
      6320      6318      6321      6322      6320      6318      6321      6323
      6320      6318      6321      6324      6321      6324      6327      6328
      6321      6324      6327      6329      6321      6324      6327      6330
      6322      6321      6324      6325      6322      6321      6324      6326
      6322      6321      6324      6327      6323      6321      6324      6325
      6323      6321      6324      6326      6323      6321      6324      6327
      6324      6327      6330      6331      6324      6327      6330      6332
      6324      6327      6330      6333      6325      6324      6327      6328
      6325      6324      6327      6329      6325      6324      6327      6330
      6326      6324      6327      6328      6326      6324      6327      6329
      6326      6324      6327      6330      6327      6330      6333      6334
      6327      6330      6333      6335      6327      6330      6333      6336
      6328      6327      6330      6331      6328      6327      6330      6332
      6328      6327      6330      6333      6329      6327      6330      6331
      6329      6327      6330      6332      6329      6327      6330      6333
      6330      6333      6336      6337      6330      6333      6336      6338
      6330      6333      6336      6339      6331      6330      6333      6334
      6331      6330      6333      6335      6331      6330      6333      6336
      6332      6330      6333      6334      6332      6330      6333      6335
      6332      6330      6333      6336      6333      6336      6339      6340
      6333      6336      6339      6341      6333      6336      6339      6342
      6334      6333      6336      6337      6334      6333      6336      6338
      6334      6333      6336      6339      6335      6333      6336      6337
      6335      6333      6336      6338      6335      6333      6336      6339
      6336      6339      6342      6343      6336      6339      6342      6344
      6336      6339      6342      6345      6337      6336      6339      6340
      6337      6336      6339      6341      6337      6336      6339      6342
      6338      6336      6339      6340      6338      6336      6339      6341
      6338      6336      6339      6342      6340      6339      6342      6343
      6340      6339      6342      6344      6340      6339      6342      6345
      6341      6339      6342      6343      6341      6339      6342      6344
      6341      6339      6342      6345      6346      6350      6353      6354
      6346      6350      6353      6384      6346      6392      6389      6384
      6346      6392      6389      6390      6346      6392      6389      6391
      6347      6346      6348      6349      6347      6346      6350      6351
      6347      6346      6350      6352      6347      6346      6350      6353
      6347      6346      6392      6389      6347      6346      6392      6393
      6347      6346      6392      6394      6348      6346      6350      6351
      6348      6346      6350      6352      6348      6346      6350      6353
      6348      6346      6392      6389      6348      6346      6392      6393
      6348      6346      6392      6394      6349      6348      6346      6350
      6349      6348      6346      6392      6350      6346      6392      6389
      6350      6346      6392      6393      6350      6346      6392      6394
      6350      6353      6354      6355      6350      6353      6354      6356
      6350      6353      6384      6382      6350      6353      6384      6385
      6350      6353      6384      6389      6351      6350      6346      6392
      6351      6350      6353      6354      6351      6350      6353      6384
      6352      6350      6346      6392      6352      6350      6353      6354
      6352      6350      6353      6384      6353      6350      6346      6392
      6353      6354      6356      6357      6353      6354      6356      6358
      6353      6354      6356      6359      6353      6384      6382      6359
      6353      6384      6382      6379      6353      6384      6382      6383
      6353      6384      6385      6386      6353      6384      6385      6387
      6353      6384      6385      6388      6353      6384      6389      6390
      6353      6384      6389      6391      6353      6384      6389      6392
      6354      6353      6384      6382      6354      6353      6384      6385
      6354      6353      6384      6389      6354      6356      6359      6360
      6354      6356      6359      6361      6354      6356      6359      6382
      6355      6354      6353      6384      6355      6354      6356      6357
      6355      6354      6356      6358      6355      6354      6356      6359
      6356      6354      6353      6384      6356      6359      6361      6362
      6356      6359      6361      6363      6356      6359      6361      6371
      6356      6359      6382      6379      6356      6359      6382      6383
      6356      6359      6382      6384      6357      6356      6359      6360
      6357      6356      6359      6361      6357      6356      6359      6382
      6358      6356      6359      6360      6358      6356      6359      6361
      6358      6356      6359      6382      6359      6361      6363      6364
      6359      6361      6363      6365      6359      6361      6363      6366
      6359      6361      6371      6369      6359      6361      6371      6372
      6359      6361      6371      6376      6359      6382      6379      6376
      6359      6382      6379      6380      6359      6382      6379      6381
      6359      6382      6384      6385      6359      6382      6384      6389
      6360      6359      6361      6362      6360      6359      6361      6363
      6360      6359      6361      6371      6360      6359      6382      6379
      6360      6359      6382      6383      6360      6359      6382      6384
      6361      6359      6382      6379      6361      6359      6382      6383
      6361      6359      6382      6384      6361      6363      6366      6367
      6361      6363      6366      6368      6361      6363      6366      6369
      6361      6371      6369      6366      6361      6371      6369      6370
      6361      6371      6369      6395      6361      6371      6372      6373
      6361      6371      6372      6374      6361      6371      6372      6375
      6361      6371      6376      6377      6361      6371      6376      6378
      6361      6371      6376      6379      6362      6361      6359      6382
      6362      6361      6363      6364      6362      6361      6363      6365
      6362      6361      6363      6366      6362      6361      6371      6369
      6362      6361      6371      6372      6362      6361      6371      6376
      6363      6361      6359      6382      6363      6361      6371      6369
      6363      6361      6371      6372      6363      6361      6371      6376
      6363      6366      6369      6370      6363      6366      6369      6371
      6363      6366      6369      6395      6364      6363      6361      6371
      6364      6363      6366      6367      6364      6363      6366      6368
      6364      6363      6366      6369      6365      6363      6361      6371
      6365      6363      6366      6367      6365      6363      6366      6368
      6365      6363      6366      6369      6366      6363      6361      6371
      6366      6369      6371      6372      6366      6369      6371      6376
      6366      6369      6395      6396      6366      6369      6395      6397
      6366      6369      6395      6401      6367      6366      6369      6370
      6367      6366      6369      6371      6367      6366      6369      6395
      6368      6366      6369      6370      6368      6366      6369      6371
      6368      6366      6369      6395      6369      6371      6372      6373
      6369      6371      6372      6374      6369      6371      6372      6375
      6369      6371      6376      6377      6369      6371      6376      6378
      6369      6371      6376      6379      6369      6395      6397      6398
      6369      6395      6397      6399      6369      6395      6397      6400
      6369      6395      6401      6402      6369      6395      6401      6403
      6369      6395      6401      6404      6370      6369      6371      6372
      6370      6369      6371      6376      6370      6369      6395      6396
      6370      6369      6395      6397      6370      6369      6395      6401
      6371      6361      6359      6382      6371      6369      6395      6396
      6371      6369      6395      6397      6371      6369      6395      6401
      6371      6376      6379      6380      6371      6376      6379      6381
      6371      6376      6379      6382      6372      6371      6369      6395
      6372      6371      6376      6377      6372      6371      6376      6378
      6372      6371      6376      6379      6373      6372      6371      6376
      6374      6372      6371      6376      6375      6372      6371      6376
      6376      6371      6369      6395      6376      6379      6382      6383
      6376      6379      6382      6384      6377      6376      6379      6380
      6377      6376      6379      6381      6377      6376      6379      6382
      6378      6376      6379      6380      6378      6376      6379      6381
      6378      6376      6379      6382      6379      6382      6384      6385
      6379      6382      6384      6389      6380      6379      6382      6383
      6380      6379      6382      6384      6381      6379      6382      6383
      6381      6379      6382      6384      6382      6384      6385      6386
      6382      6384      6385      6387      6382      6384      6385      6388
      6382      6384      6389      6390      6382      6384      6389      6391
      6382      6384      6389      6392      6383      6382      6384      6385
      6383      6382      6384      6389      6384      6389      6392      6393
      6384      6389      6392      6394      6385      6384      6389      6390
      6385      6384      6389      6391      6385      6384      6389      6392
      6386      6385      6384      6389      6387      6385      6384      6389
      6388      6385      6384      6389      6390      6389      6392      6393
      6390      6389      6392      6394      6391      6389      6392      6393
      6391      6389      6392      6394      6395      6401      6404      6405
      6395      6401      6404      6406      6395      6401      6404      6407
      6396      6395      6397      6398      6396      6395      6397      6399
      6396      6395      6397      6400      6396      6395      6401      6402
      6396      6395      6401      6403      6396      6395      6401      6404
      6397      6395      6401      6402      6397      6395      6401      6403
      6397      6395      6401      6404      6398      6397      6395      6401
      6399      6397      6395      6401      6400      6397      6395      6401
      6401      6404      6407      6408      6401      6404      6407      6409
      6401      6404      6407      6410      6402      6401      6404      6405
      6402      6401      6404      6406      6402      6401      6404      6407
      6403      6401      6404      6405      6403      6401      6404      6406
      6403      6401      6404      6407      6404      6407      6410      6411
      6404      6407      6410      6412      6404      6407      6410      6416
      6405      6404      6407      6408      6405      6404      6407      6409
      6405      6404      6407      6410      6406      6404      6407      6408
      6406      6404      6407      6409      6406      6404      6407      6410
      6407      6410      6412      6413      6407      6410      6412      6414
      6407      6410      6412      6415      6407      6410      6416      6417
      6407      6410      6416      6418      6407      6410      6416      6419
      6408      6407      6410      6411      6408      6407      6410      6412
      6408      6407      6410      6416      6409      6407      6410      6411
      6409      6407      6410      6412      6409      6407      6410      6416
      6411      6410      6412      6413      6411      6410      6412      6414
      6411      6410      6412      6415      6411      6410      6416      6417
      6411      6410      6416      6418      6411      6410      6416      6419
      6412      6410      6416      6417      6412      6410      6416      6418
      6412      6410      6416      6419      6413      6412      6410      6416
      6414      6412      6410      6416      6415      6412      6410      6416
      6420      6433      6436      6437      6420      6433      6436      6438
      6420      6433      6436      6443      6421      6420      6425      6426
      6421      6420      6425      6427      6421      6420      6425      6428
      6421      6420      6429      6430      6421      6420      6429      6431
      6421      6420      6429      6432      6421      6420      6433      6434
      6421      6420      6433      6435      6421      6420      6433      6436
      6422      6421      6420      6425      6422      6421      6420      6429
      6422      6421      6420      6433      6423      6421      6420      6425
      6423      6421      6420      6429      6423      6421      6420      6433
      6424      6421      6420      6425      6424      6421      6420      6429
      6424      6421      6420      6433      6425      6420      6429      6430
      6425      6420      6429      6431      6425      6420      6429      6432
      6425      6420      6433      6434      6425      6420      6433      6435
      6425      6420      6433      6436      6426      6425      6420      6429
      6426      6425      6420      6433      6427      6425      6420      6429
      6427      6425      6420      6433      6428      6425      6420      6429
      6428      6425      6420      6433      6429      6420      6433      6434
      6429      6420      6433      6435      6429      6420      6433      6436
      6430      6429      6420      6433      6431      6429      6420      6433
      6432      6429      6420      6433      6433      6436      6443      6439
      6434      6433      6436      6437      6434      6433      6436      6438
      6434      6433      6436      6443      6435      6433      6436      6437
      6435      6433      6436      6438      6435      6433      6436      6443
      6436      6443      6439      6440      6436      6443      6439      6441
      6436      6443      6439      6442      6437      6436      6443      6439
      6438      6436      6443      6439      6439      6442      6444      6445
      6439      6442      6444      6446      6439      6442      6444      6449
      6440      6439      6442      6444      6441      6439      6442      6444
      6442      6444      6449      6447      6442      6444      6449      6450
      6442      6444      6449      6451      6443      6439      6442      6444
      6444      6449      6447      6448      6444      6449      6447      6499
      6444      6449      6451      6452      6444      6449      6451      6453
      6444      6449      6451      6455      6445      6444      6449      6447
      6445      6444      6449      6450      6445      6444      6449      6451
      6446      6444      6449      6447      6446      6444      6449      6450
      6446      6444      6449      6451      6447      6449      6451      6452
      6447      6449      6451      6453      6447      6449      6451      6455
      6447      6499      6501      6502      6447      6499      6501      6503
      6447      6499      6501      6504      6448      6447      6449      6450
      6448      6447      6449      6451      6448      6447      6499      6500
      6448      6447      6499      6501      6449      6447      6499      6500
      6449      6447      6499      6501      6449      6451      6453      6454
      6449      6451      6455      6456      6449      6451      6455      6457
      6450      6449      6447      6499      6450      6449      6451      6452
      6450      6449      6451      6453      6450      6449      6451      6455
      6451      6449      6447      6499      6451      6455      6457      6458
      6451      6455      6457      6459      6452      6451      6453      6454
      6452      6451      6455      6456      6452      6451      6455      6457
      6453      6451      6455      6456      6453      6451      6455      6457
      6454      6453      6451      6455      6455      6457      6459      6460
      6455      6457      6459      6461      6455      6457      6459      6462
      6456      6455      6457      6458      6456      6455      6457      6459
      6457      6459      6462      6463      6457      6459      6462      6464
      6457      6459      6462      6465      6458      6457      6459      6460
      6458      6457      6459      6461      6458      6457      6459      6462
      6459      6462      6465      6466      6459      6462      6465      6467
      6459      6462      6465      6468      6460      6459      6462      6463
      6460      6459      6462      6464      6460      6459      6462      6465
      6461      6459      6462      6463      6461      6459      6462      6464
      6461      6459      6462      6465      6462      6465      6468      6469
      6462      6465      6468      6470      6462      6465      6468      6471
      6463      6462      6465      6466      6463      6462      6465      6467
      6463      6462      6465      6468      6464      6462      6465      6466
      6464      6462      6465      6467      6464      6462      6465      6468
      6465      6468      6471      6472      6465      6468      6471      6473
      6465      6468      6471      6474      6466      6465      6468      6469
      6466      6465      6468      6470      6466      6465      6468      6471
      6467      6465      6468      6469      6467      6465      6468      6470
      6467      6465      6468      6471      6468      6471      6474      6475
      6468      6471      6474      6476      6468      6471      6474      6477
      6469      6468      6471      6472      6469      6468      6471      6473
      6469      6468      6471      6474      6470      6468      6471      6472
      6470      6468      6471      6473      6470      6468      6471      6474
      6471      6474      6477      6478      6471      6474      6477      6479
      6471      6474      6477      6480      6472      6471      6474      6475
      6472      6471      6474      6476      6472      6471      6474      6477
      6473      6471      6474      6475      6473      6471      6474      6476
      6473      6471      6474      6477      6474      6477      6480      6481
      6474      6477      6480      6482      6474      6477      6480      6483
      6475      6474      6477      6478      6475      6474      6477      6479
      6475      6474      6477      6480      6476      6474      6477      6478
      6476      6474      6477      6479      6476      6474      6477      6480
      6477      6480      6483      6484      6477      6480      6483      6485
      6477      6480      6483      6486      6478      6477      6480      6481
      6478      6477      6480      6482      6478      6477      6480      6483
      6479      6477      6480      6481      6479      6477      6480      6482
      6479      6477      6480      6483      6480      6483      6486      6487
      6480      6483      6486      6488      6480      6483      6486      6489
      6481      6480      6483      6484      6481      6480      6483      6485
      6481      6480      6483      6486      6482      6480      6483      6484
      6482      6480      6483      6485      6482      6480      6483      6486
      6483      6486      6489      6490      6483      6486      6489      6491
      6483      6486      6489      6492      6484      6483      6486      6487
      6484      6483      6486      6488      6484      6483      6486      6489
      6485      6483      6486      6487      6485      6483      6486      6488
      6485      6483      6486      6489      6486      6489      6492      6493
      6486      6489      6492      6494      6486      6489      6492      6495
      6487      6486      6489      6490      6487      6486      6489      6491
      6487      6486      6489      6492      6488      6486      6489      6490
      6488      6486      6489      6491      6488      6486      6489      6492
      6489      6492      6495      6496      6489      6492      6495      6497
      6489      6492      6495      6498      6490      6489      6492      6493
      6490      6489      6492      6494      6490      6489      6492      6495
      6491      6489      6492      6493      6491      6489      6492      6494
      6491      6489      6492      6495      6493      6492      6495      6496
      6493      6492      6495      6497      6493      6492      6495      6498
      6494      6492      6495      6496      6494      6492      6495      6497
      6494      6492      6495      6498      6499      6501      6504      6505
      6499      6501      6504      6506      6499      6501      6504      6507
      6500      6499      6501      6502      6500      6499      6501      6503
      6500      6499      6501      6504      6501      6504      6507      6508
      6501      6504      6507      6509      6501      6504      6507      6510
      6502      6501      6504      6505      6502      6501      6504      6506
      6502      6501      6504      6507      6503      6501      6504      6505
      6503      6501      6504      6506      6503      6501      6504      6507
      6504      6507      6510      6511      6504      6507      6510      6512
      6504      6507      6510      6513      6505      6504      6507      6508
      6505      6504      6507      6509      6505      6504      6507      6510
      6506      6504      6507      6508      6506      6504      6507      6509
      6506      6504      6507      6510      6507      6510      6513      6514
      6507      6510      6513      6515      6507      6510      6513      6516
      6508      6507      6510      6511      6508      6507      6510      6512
      6508      6507      6510      6513      6509      6507      6510      6511
      6509      6507      6510      6512      6509      6507      6510      6513
      6510      6513      6516      6517      6510      6513      6516      6518
      6510      6513      6516      6519      6511      6510      6513      6514
      6511      6510      6513      6515      6511      6510      6513      6516
      6512      6510      6513      6514      6512      6510      6513      6515
      6512      6510      6513      6516      6513      6516      6519      6520
      6513      6516      6519      6521      6513      6516      6519      6522
      6514      6513      6516      6517      6514      6513      6516      6518
      6514      6513      6516      6519      6515      6513      6516      6517
      6515      6513      6516      6518      6515      6513      6516      6519
      6516      6519      6522      6523      6516      6519      6522      6524
      6517      6516      6519      6520      6517      6516      6519      6521
      6517      6516      6519      6522      6518      6516      6519      6520
      6518      6516      6519      6521      6518      6516      6519      6522
      6519      6522      6524      6525      6519      6522      6524      6526
      6520      6519      6522      6523      6520      6519      6522      6524
      6521      6519      6522      6523      6521      6519      6522      6524
      6522      6524      6526      6527      6522      6524      6526      6528
      6522      6524      6526      6529      6523      6522      6524      6525
      6523      6522      6524      6526      6524      6526      6529      6530
      6524      6526      6529      6531      6524      6526      6529      6532
      6525      6524      6526      6527      6525      6524      6526      6528
      6525      6524      6526      6529      6526      6529      6532      6533
      6526      6529      6532      6534      6526      6529      6532      6535
      6527      6526      6529      6530      6527      6526      6529      6531
      6527      6526      6529      6532      6528      6526      6529      6530
      6528      6526      6529      6531      6528      6526      6529      6532
      6529      6532      6535      6536      6529      6532      6535      6537
      6529      6532      6535      6538      6530      6529      6532      6533
      6530      6529      6532      6534      6530      6529      6532      6535
      6531      6529      6532      6533      6531      6529      6532      6534
      6531      6529      6532      6535      6532      6535      6538      6539
      6532      6535      6538      6540      6532      6535      6538      6541
      6533      6532      6535      6536      6533      6532      6535      6537
      6533      6532      6535      6538      6534      6532      6535      6536
      6534      6532      6535      6537      6534      6532      6535      6538
      6535      6538      6541      6542      6535      6538      6541      6543
      6535      6538      6541      6544      6536      6535      6538      6539
      6536      6535      6538      6540      6536      6535      6538      6541
      6537      6535      6538      6539      6537      6535      6538      6540
      6537      6535      6538      6541      6538      6541      6544      6545
      6538      6541      6544      6546      6538      6541      6544      6547
      6539      6538      6541      6542      6539      6538      6541      6543
      6539      6538      6541      6544      6540      6538      6541      6542
      6540      6538      6541      6543      6540      6538      6541      6544
      6541      6544      6547      6548      6541      6544      6547      6549
      6541      6544      6547      6550      6542      6541      6544      6545
      6542      6541      6544      6546      6542      6541      6544      6547
      6543      6541      6544      6545      6543      6541      6544      6546
      6543      6541      6544      6547      6545      6544      6547      6548
      6545      6544      6547      6549      6545      6544      6547      6550
      6546      6544      6547      6548      6546      6544      6547      6549
      6546      6544      6547      6550      6551      6552      6567      6568
      6551      6552      6567      6569      6551      6552      6567      6573
      6552      6551      6555      6556      6552      6551      6555      6557
      6552      6551      6555      6558      6552      6551      6559      6560
      6552      6551      6559      6561      6552      6551      6559      6562
      6552      6551      6563      6564      6552      6551      6563      6565
      6552      6551      6563      6566      6552      6567      6573      6570
      6553      6552      6551      6555      6553      6552      6551      6559
      6553      6552      6551      6563      6553      6552      6567      6568
      6553      6552      6567      6569      6553      6552      6567      6573
      6554      6552      6551      6555      6554      6552      6551      6559
      6554      6552      6551      6563      6554      6552      6567      6568
      6554      6552      6567      6569      6554      6552      6567      6573
      6555      6551      6552      6567      6555      6551      6559      6560
      6555      6551      6559      6561      6555      6551      6559      6562
      6555      6551      6563      6564      6555      6551      6563      6565
      6555      6551      6563      6566      6556      6555      6551      6559
      6556      6555      6551      6563      6557      6555      6551      6559
      6557      6555      6551      6563      6558      6555      6551      6559
      6558      6555      6551      6563      6559      6551      6552      6567
      6559      6551      6563      6564      6559      6551      6563      6565
      6559      6551      6563      6566      6560      6559      6551      6563
      6561      6559      6551      6563      6562      6559      6551      6563
      6563      6551      6552      6567      6567      6573      6570      6571
      6567      6573      6570      6572      6567      6573      6570      6574
      6568      6567      6573      6570      6569      6567      6573      6570
      6570      6574      6575      6576      6570      6574      6575      6577
      6570      6574      6575      6578      6571      6570      6574      6575
      6572      6570      6574      6575      6573      6570      6574      6575
      6574      6575      6578      6579      6574      6575      6578      6580
      6574      6575      6578      6586      6575      6578      6580      6581
      6575      6578      6586      6587      6575      6578      6586      6588
      6575      6578      6586      6589      6576      6575      6578      6579
      6576      6575      6578      6580      6576      6575      6578      6586
      6577      6575      6578      6579      6577      6575      6578      6580
      6577      6575      6578      6586      6578      6580      6581      6582
      6578      6580      6581      6583      6578      6586      6589      6590
      6579      6578      6580      6581      6579      6578      6586      6587
      6579      6578      6586      6588      6579      6578      6586      6589
      6580      6578      6586      6587      6580      6578      6586      6588
      6580      6578      6586      6589      6580      6581      6583      6584
      6580      6581      6583      6585      6580      6581      6583      6595
      6581      6580      6578      6586      6581      6583      6595      6596
      6581      6583      6595      6597      6581      6583      6595      6598
      6582      6581      6583      6584      6582      6581      6583      6585
      6582      6581      6583      6595      6583      6595      6598      6599
      6583      6595      6598      6600      6583      6595      6598      6601
      6584      6583      6595      6596      6584      6583      6595      6597
      6584      6583      6595      6598      6585      6583      6595      6596
      6585      6583      6595      6597      6585      6583      6595      6598
      6586      6589      6590      6591      6586      6589      6590      6592
      6587      6586      6589      6590      6588      6586      6589      6590
      6589      6590      6592      6593      6589      6590      6592      6594
      6589      6590      6592      6642      6590      6592      6642      6643
      6590      6592      6642      6644      6590      6592      6642      6645
      6591      6590      6592      6593      6591      6590      6592      6594
      6591      6590      6592      6642      6592      6642      6645      6646
      6592      6642      6645      6647      6592      6642      6645      6648
      6593      6592      6642      6643      6593      6592      6642      6644
      6593      6592      6642      6645      6594      6592      6642      6643
      6594      6592      6642      6644      6594      6592      6642      6645
      6595      6598      6601      6602      6595      6598      6601      6603
      6596      6595      6598      6599      6596      6595      6598      6600
      6596      6595      6598      6601      6597      6595      6598      6599
      6597      6595      6598      6600      6597      6595      6598      6601
      6598      6601      6603      6604      6598      6601      6603      6605
      6599      6598      6601      6602      6599      6598      6601      6603
      6600      6598      6601      6602      6600      6598      6601      6603
      6601      6603      6605      6606      6601      6603      6605      6607
      6601      6603      6605      6608      6602      6601      6603      6604
      6602      6601      6603      6605      6603      6605      6608      6609
      6603      6605      6608      6610      6604      6603      6605      6606
      6604      6603      6605      6607      6604      6603      6605      6608
      6605      6608      6610      6611      6605      6608      6610      6612
      6606      6605      6608      6609      6606      6605      6608      6610
      6607      6605      6608      6609      6607      6605      6608      6610
      6608      6610      6612      6613      6608      6610      6612      6614
      6608      6610      6612      6615      6609      6608      6610      6611
      6609      6608      6610      6612      6610      6612      6615      6616
      6610      6612      6615      6617      6611      6610      6612      6613
      6611      6610      6612      6614      6611      6610      6612      6615
      6612      6615      6617      6618      6612      6615      6617      6619
      6613      6612      6615      6616      6613      6612      6615      6617
      6614      6612      6615      6616      6614      6612      6615      6617
      6615      6617      6619      6620      6615      6617      6619      6621
      6615      6617      6619      6622      6616      6615      6617      6618
      6616      6615      6617      6619      6617      6619      6622      6623
      6617      6619      6622      6624      6618      6617      6619      6620
      6618      6617      6619      6621      6618      6617      6619      6622
      6619      6622      6624      6625      6619      6622      6624      6626
      6620      6619      6622      6623      6620      6619      6622      6624
      6621      6619      6622      6623      6621      6619      6622      6624
      6622      6624      6626      6627      6622      6624      6626      6628
      6622      6624      6626      6629      6623      6622      6624      6625
      6623      6622      6624      6626      6624      6626      6629      6630
      6624      6626      6629      6631      6624      6626      6629      6632
      6625      6624      6626      6627      6625      6624      6626      6628
      6625      6624      6626      6629      6626      6629      6632      6633
      6626      6629      6632      6634      6626      6629      6632      6635
      6627      6626      6629      6630      6627      6626      6629      6631
      6627      6626      6629      6632      6628      6626      6629      6630
      6628      6626      6629      6631      6628      6626      6629      6632
      6629      6632      6635      6636      6629      6632      6635      6637
      6629      6632      6635      6638      6630      6629      6632      6633
      6630      6629      6632      6634      6630      6629      6632      6635
      6631      6629      6632      6633      6631      6629      6632      6634
      6631      6629      6632      6635      6632      6635      6638      6639
      6632      6635      6638      6640      6632      6635      6638      6641
      6633      6632      6635      6636      6633      6632      6635      6637
      6633      6632      6635      6638      6634      6632      6635      6636
      6634      6632      6635      6637      6634      6632      6635      6638
      6636      6635      6638      6639      6636      6635      6638      6640
      6636      6635      6638      6641      6637      6635      6638      6639
      6637      6635      6638      6640      6637      6635      6638      6641
      6642      6645      6648      6649      6642      6645      6648      6650
      6642      6645      6648      6651      6643      6642      6645      6646
      6643      6642      6645      6647      6643      6642      6645      6648
      6644      6642      6645      6646      6644      6642      6645      6647
      6644      6642      6645      6648      6645      6648      6651      6652
      6645      6648      6651      6653      6645      6648      6651      6654
      6646      6645      6648      6649      6646      6645      6648      6650
      6646      6645      6648      6651      6647      6645      6648      6649
      6647      6645      6648      6650      6647      6645      6648      6651
      6648      6651      6654      6655      6648      6651      6654      6656
      6648      6651      6654      6657      6649      6648      6651      6652
      6649      6648      6651      6653      6649      6648      6651      6654
      6650      6648      6651      6652      6650      6648      6651      6653
      6650      6648      6651      6654      6651      6654      6657      6658
      6651      6654      6657      6659      6651      6654      6657      6660
      6652      6651      6654      6655      6652      6651      6654      6656
      6652      6651      6654      6657      6653      6651      6654      6655
      6653      6651      6654      6656      6653      6651      6654      6657
      6654      6657      6660      6661      6654      6657      6660      6662
      6654      6657      6660      6663      6655      6654      6657      6658
      6655      6654      6657      6659      6655      6654      6657      6660
      6656      6654      6657      6658      6656      6654      6657      6659
      6656      6654      6657      6660      6657      6660      6663      6664
      6657      6660      6663      6665      6657      6660      6663      6666
      6658      6657      6660      6661      6658      6657      6660      6662
      6658      6657      6660      6663      6659      6657      6660      6661
      6659      6657      6660      6662      6659      6657      6660      6663
      6660      6663      6666      6667      6660      6663      6666      6668
      6660      6663      6666      6669      6661      6660      6663      6664
      6661      6660      6663      6665      6661      6660      6663      6666
      6662      6660      6663      6664      6662      6660      6663      6665
      6662      6660      6663      6666      6663      6666      6669      6670
      6663      6666      6669      6671      6663      6666      6669      6672
      6664      6663      6666      6667      6664      6663      6666      6668
      6664      6663      6666      6669      6665      6663      6666      6667
      6665      6663      6666      6668      6665      6663      6666      6669
      6666      6669      6672      6673      6666      6669      6672      6674
      6666      6669      6672      6675      6667      6666      6669      6670
      6667      6666      6669      6671      6667      6666      6669      6672
      6668      6666      6669      6670      6668      6666      6669      6671
      6668      6666      6669      6672      6669      6672      6675      6676
      6669      6672      6675      6677      6669      6672      6675      6678
      6670      6669      6672      6673      6670      6669      6672      6674
      6670      6669      6672      6675      6671      6669      6672      6673
      6671      6669      6672      6674      6671      6669      6672      6675
      6672      6675      6678      6679      6672      6675      6678      6680
      6672      6675      6678      6681      6673      6672      6675      6676
      6673      6672      6675      6677      6673      6672      6675      6678
      6674      6672      6675      6676      6674      6672      6675      6677
      6674      6672      6675      6678      6675      6678      6681      6682
      6675      6678      6681      6683      6675      6678      6681      6684
      6676      6675      6678      6679      6676      6675      6678      6680
      6676      6675      6678      6681      6677      6675      6678      6679
      6677      6675      6678      6680      6677      6675      6678      6681
      6678      6681      6684      6685      6678      6681      6684      6686
      6678      6681      6684      6687      6679      6678      6681      6682
      6679      6678      6681      6683      6679      6678      6681      6684
      6680      6678      6681      6682      6680      6678      6681      6683
      6680      6678      6681      6684      6681      6684      6687      6688
      6681      6684      6687      6689      6681      6684      6687      6690
      6682      6681      6684      6685      6682      6681      6684      6686
      6682      6681      6684      6687      6683      6681      6684      6685
      6683      6681      6684      6686      6683      6681      6684      6687
      6685      6684      6687      6688      6685      6684      6687      6689
      6685      6684      6687      6690      6686      6684      6687      6688
      6686      6684      6687      6689      6686      6684      6687      6690
      6691      6695      6698      6699      6691      6695      6698      6729
      6691      6737      6734      6729      6691      6737      6734      6735
      6691      6737      6734      6736      6692      6691      6693      6694
      6692      6691      6695      6696      6692      6691      6695      6697
      6692      6691      6695      6698      6692      6691      6737      6734
      6692      6691      6737      6738      6692      6691      6737      6739
      6693      6691      6695      6696      6693      6691      6695      6697
      6693      6691      6695      6698      6693      6691      6737      6734
      6693      6691      6737      6738      6693      6691      6737      6739
      6694      6693      6691      6695      6694      6693      6691      6737
      6695      6691      6737      6734      6695      6691      6737      6738
      6695      6691      6737      6739      6695      6698      6699      6700
      6695      6698      6699      6701      6695      6698      6729      6727
      6695      6698      6729      6730      6695      6698      6729      6734
      6696      6695      6691      6737      6696      6695      6698      6699
      6696      6695      6698      6729      6697      6695      6691      6737
      6697      6695      6698      6699      6697      6695      6698      6729
      6698      6695      6691      6737      6698      6699      6701      6702
      6698      6699      6701      6703      6698      6699      6701      6704
      6698      6729      6727      6704      6698      6729      6727      6724
      6698      6729      6727      6728      6698      6729      6730      6731
      6698      6729      6730      6732      6698      6729      6730      6733
      6698      6729      6734      6735      6698      6729      6734      6736
      6698      6729      6734      6737      6699      6698      6729      6727
      6699      6698      6729      6730      6699      6698      6729      6734
      6699      6701      6704      6705      6699      6701      6704      6706
      6699      6701      6704      6727      6700      6699      6698      6729
      6700      6699      6701      6702      6700      6699      6701      6703
      6700      6699      6701      6704      6701      6699      6698      6729
      6701      6704      6706      6707      6701      6704      6706      6708
      6701      6704      6706      6716      6701      6704      6727      6724
      6701      6704      6727      6728      6701      6704      6727      6729
      6702      6701      6704      6705      6702      6701      6704      6706
      6702      6701      6704      6727      6703      6701      6704      6705
      6703      6701      6704      6706      6703      6701      6704      6727
      6704      6706      6708      6709      6704      6706      6708      6710
      6704      6706      6708      6711      6704      6706      6716      6714
      6704      6706      6716      6717      6704      6706      6716      6721
      6704      6727      6724      6721      6704      6727      6724      6725
      6704      6727      6724      6726      6704      6727      6729      6730
      6704      6727      6729      6734      6705      6704      6706      6707
      6705      6704      6706      6708      6705      6704      6706      6716
      6705      6704      6727      6724      6705      6704      6727      6728
      6705      6704      6727      6729      6706      6704      6727      6724
      6706      6704      6727      6728      6706      6704      6727      6729
      6706      6708      6711      6712      6706      6708      6711      6713
      6706      6708      6711      6714      6706      6716      6714      6711
      6706      6716      6714      6715      6706      6716      6714      6740
      6706      6716      6717      6718      6706      6716      6717      6719
      6706      6716      6717      6720      6706      6716      6721      6722
      6706      6716      6721      6723      6706      6716      6721      6724
      6707      6706      6704      6727      6707      6706      6708      6709
      6707      6706      6708      6710      6707      6706      6708      6711
      6707      6706      6716      6714      6707      6706      6716      6717
      6707      6706      6716      6721      6708      6706      6704      6727
      6708      6706      6716      6714      6708      6706      6716      6717
      6708      6706      6716      6721      6708      6711      6714      6715
      6708      6711      6714      6716      6708      6711      6714      6740
      6709      6708      6706      6716      6709      6708      6711      6712
      6709      6708      6711      6713      6709      6708      6711      6714
      6710      6708      6706      6716      6710      6708      6711      6712
      6710      6708      6711      6713      6710      6708      6711      6714
      6711      6708      6706      6716      6711      6714      6716      6717
      6711      6714      6716      6721      6711      6714      6740      6741
      6711      6714      6740      6742      6711      6714      6740      6746
      6712      6711      6714      6715      6712      6711      6714      6716
      6712      6711      6714      6740      6713      6711      6714      6715
      6713      6711      6714      6716      6713      6711      6714      6740
      6714      6716      6717      6718      6714      6716      6717      6719
      6714      6716      6717      6720      6714      6716      6721      6722
      6714      6716      6721      6723      6714      6716      6721      6724
      6714      6740      6742      6743      6714      6740      6742      6744
      6714      6740      6742      6745      6714      6740      6746      6747
      6714      6740      6746      6748      6714      6740      6746      6749
      6715      6714      6716      6717      6715      6714      6716      6721
      6715      6714      6740      6741      6715      6714      6740      6742
      6715      6714      6740      6746      6716      6706      6704      6727
      6716      6714      6740      6741      6716      6714      6740      6742
      6716      6714      6740      6746      6716      6721      6724      6725
      6716      6721      6724      6726      6716      6721      6724      6727
      6717      6716      6714      6740      6717      6716      6721      6722
      6717      6716      6721      6723      6717      6716      6721      6724
      6718      6717      6716      6721      6719      6717      6716      6721
      6720      6717      6716      6721      6721      6716      6714      6740
      6721      6724      6727      6728      6721      6724      6727      6729
      6722      6721      6724      6725      6722      6721      6724      6726
      6722      6721      6724      6727      6723      6721      6724      6725
      6723      6721      6724      6726      6723      6721      6724      6727
      6724      6727      6729      6730      6724      6727      6729      6734
      6725      6724      6727      6728      6725      6724      6727      6729
      6726      6724      6727      6728      6726      6724      6727      6729
      6727      6729      6730      6731      6727      6729      6730      6732
      6727      6729      6730      6733      6727      6729      6734      6735
      6727      6729      6734      6736      6727      6729      6734      6737
      6728      6727      6729      6730      6728      6727      6729      6734
      6729      6734      6737      6738      6729      6734      6737      6739
      6730      6729      6734      6735      6730      6729      6734      6736
      6730      6729      6734      6737      6731      6730      6729      6734
      6732      6730      6729      6734      6733      6730      6729      6734
      6735      6734      6737      6738      6735      6734      6737      6739
      6736      6734      6737      6738      6736      6734      6737      6739
      6740      6746      6749      6750      6740      6746      6749      6751
      6740      6746      6749      6752      6741      6740      6742      6743
      6741      6740      6742      6744      6741      6740      6742      6745
      6741      6740      6746      6747      6741      6740      6746      6748
      6741      6740      6746      6749      6742      6740      6746      6747
      6742      6740      6746      6748      6742      6740      6746      6749
      6743      6742      6740      6746      6744      6742      6740      6746
      6745      6742      6740      6746      6746      6749      6752      6753
      6746      6749      6752      6754      6746      6749      6752      6755
      6747      6746      6749      6750      6747      6746      6749      6751
      6747      6746      6749      6752      6748      6746      6749      6750
      6748      6746      6749      6751      6748      6746      6749      6752
      6749      6752      6755      6756      6749      6752      6755      6757
      6749      6752      6755      6761      6750      6749      6752      6753
      6750      6749      6752      6754      6750      6749      6752      6755
      6751      6749      6752      6753      6751      6749      6752      6754
      6751      6749      6752      6755      6752      6755      6757      6758
      6752      6755      6757      6759      6752      6755      6757      6760
      6752      6755      6761      6762      6752      6755      6761      6763
      6752      6755      6761      6764      6753      6752      6755      6756
      6753      6752      6755      6757      6753      6752      6755      6761
      6754      6752      6755      6756      6754      6752      6755      6757
      6754      6752      6755      6761      6756      6755      6757      6758
      6756      6755      6757      6759      6756      6755      6757      6760
      6756      6755      6761      6762      6756      6755      6761      6763
      6756      6755      6761      6764      6757      6755      6761      6762
      6757      6755      6761      6763      6757      6755      6761      6764
      6758      6757      6755      6761      6759      6757      6755      6761
      6760      6757      6755      6761      6765      6769      6772      6773
      6765      6769      6772      6803      6765      6811      6808      6803
      6765      6811      6808      6809      6765      6811      6808      6810
      6766      6765      6767      6768      6766      6765      6769      6770
      6766      6765      6769      6771      6766      6765      6769      6772
      6766      6765      6811      6808      6766      6765      6811      6812
      6766      6765      6811      6813      6767      6765      6769      6770
      6767      6765      6769      6771      6767      6765      6769      6772
      6767      6765      6811      6808      6767      6765      6811      6812
      6767      6765      6811      6813      6768      6767      6765      6769
      6768      6767      6765      6811      6769      6765      6811      6808
      6769      6765      6811      6812      6769      6765      6811      6813
      6769      6772      6773      6774      6769      6772      6773      6775
      6769      6772      6803      6801      6769      6772      6803      6804
      6769      6772      6803      6808      6770      6769      6765      6811
      6770      6769      6772      6773      6770      6769      6772      6803
      6771      6769      6765      6811      6771      6769      6772      6773
      6771      6769      6772      6803      6772      6769      6765      6811
      6772      6773      6775      6776      6772      6773      6775      6777
      6772      6773      6775      6778      6772      6803      6801      6778
      6772      6803      6801      6798      6772      6803      6801      6802
      6772      6803      6804      6805      6772      6803      6804      6806
      6772      6803      6804      6807      6772      6803      6808      6809
      6772      6803      6808      6810      6772      6803      6808      6811
      6773      6772      6803      6801      6773      6772      6803      6804
      6773      6772      6803      6808      6773      6775      6778      6779
      6773      6775      6778      6780      6773      6775      6778      6801
      6774      6773      6772      6803      6774      6773      6775      6776
      6774      6773      6775      6777      6774      6773      6775      6778
      6775      6773      6772      6803      6775      6778      6780      6781
      6775      6778      6780      6782      6775      6778      6780      6790
      6775      6778      6801      6798      6775      6778      6801      6802
      6775      6778      6801      6803      6776      6775      6778      6779
      6776      6775      6778      6780      6776      6775      6778      6801
      6777      6775      6778      6779      6777      6775      6778      6780
      6777      6775      6778      6801      6778      6780      6782      6783
      6778      6780      6782      6784      6778      6780      6782      6785
      6778      6780      6790      6788      6778      6780      6790      6791
      6778      6780      6790      6795      6778      6801      6798      6795
      6778      6801      6798      6799      6778      6801      6798      6800
      6778      6801      6803      6804      6778      6801      6803      6808
      6779      6778      6780      6781      6779      6778      6780      6782
      6779      6778      6780      6790      6779      6778      6801      6798
      6779      6778      6801      6802      6779      6778      6801      6803
      6780      6778      6801      6798      6780      6778      6801      6802
      6780      6778      6801      6803      6780      6782      6785      6786
      6780      6782      6785      6787      6780      6782      6785      6788
      6780      6790      6788      6785      6780      6790      6788      6789
      6780      6790      6788      6814      6780      6790      6791      6792
      6780      6790      6791      6793      6780      6790      6791      6794
      6780      6790      6795      6796      6780      6790      6795      6797
      6780      6790      6795      6798      6781      6780      6778      6801
      6781      6780      6782      6783      6781      6780      6782      6784
      6781      6780      6782      6785      6781      6780      6790      6788
      6781      6780      6790      6791      6781      6780      6790      6795
      6782      6780      6778      6801      6782      6780      6790      6788
      6782      6780      6790      6791      6782      6780      6790      6795
      6782      6785      6788      6789      6782      6785      6788      6790
      6782      6785      6788      6814      6783      6782      6780      6790
      6783      6782      6785      6786      6783      6782      6785      6787
      6783      6782      6785      6788      6784      6782      6780      6790
      6784      6782      6785      6786      6784      6782      6785      6787
      6784      6782      6785      6788      6785      6782      6780      6790
      6785      6788      6790      6791      6785      6788      6790      6795
      6785      6788      6814      6815      6785      6788      6814      6816
      6785      6788      6814      6820      6786      6785      6788      6789
      6786      6785      6788      6790      6786      6785      6788      6814
      6787      6785      6788      6789      6787      6785      6788      6790
      6787      6785      6788      6814      6788      6790      6791      6792
      6788      6790      6791      6793      6788      6790      6791      6794
      6788      6790      6795      6796      6788      6790      6795      6797
      6788      6790      6795      6798      6788      6814      6816      6817
      6788      6814      6816      6818      6788      6814      6816      6819
      6788      6814      6820      6821      6788      6814      6820      6822
      6788      6814      6820      6823      6789      6788      6790      6791
      6789      6788      6790      6795      6789      6788      6814      6815
      6789      6788      6814      6816      6789      6788      6814      6820
      6790      6780      6778      6801      6790      6788      6814      6815
      6790      6788      6814      6816      6790      6788      6814      6820
      6790      6795      6798      6799      6790      6795      6798      6800
      6790      6795      6798      6801      6791      6790      6788      6814
      6791      6790      6795      6796      6791      6790      6795      6797
      6791      6790      6795      6798      6792      6791      6790      6795
      6793      6791      6790      6795      6794      6791      6790      6795
      6795      6790      6788      6814      6795      6798      6801      6802
      6795      6798      6801      6803      6796      6795      6798      6799
      6796      6795      6798      6800      6796      6795      6798      6801
      6797      6795      6798      6799      6797      6795      6798      6800
      6797      6795      6798      6801      6798      6801      6803      6804
      6798      6801      6803      6808      6799      6798      6801      6802
      6799      6798      6801      6803      6800      6798      6801      6802
      6800      6798      6801      6803      6801      6803      6804      6805
      6801      6803      6804      6806      6801      6803      6804      6807
      6801      6803      6808      6809      6801      6803      6808      6810
      6801      6803      6808      6811      6802      6801      6803      6804
      6802      6801      6803      6808      6803      6808      6811      6812
      6803      6808      6811      6813      6804      6803      6808      6809
      6804      6803      6808      6810      6804      6803      6808      6811
      6805      6804      6803      6808      6806      6804      6803      6808
      6807      6804      6803      6808      6809      6808      6811      6812
      6809      6808      6811      6813      6810      6808      6811      6812
      6810      6808      6811      6813      6814      6820      6823      6824
      6814      6820      6823      6825      6814      6820      6823      6826
      6815      6814      6816      6817      6815      6814      6816      6818
      6815      6814      6816      6819      6815      6814      6820      6821
      6815      6814      6820      6822      6815      6814      6820      6823
      6816      6814      6820      6821      6816      6814      6820      6822
      6816      6814      6820      6823      6817      6816      6814      6820
      6818      6816      6814      6820      6819      6816      6814      6820
      6820      6823      6826      6827      6820      6823      6826      6828
      6820      6823      6826      6829      6821      6820      6823      6824
      6821      6820      6823      6825      6821      6820      6823      6826
      6822      6820      6823      6824      6822      6820      6823      6825
      6822      6820      6823      6826      6823      6826      6829      6830
      6823      6826      6829      6831      6823      6826      6829      6835
      6824      6823      6826      6827      6824      6823      6826      6828
      6824      6823      6826      6829      6825      6823      6826      6827
      6825      6823      6826      6828      6825      6823      6826      6829
      6826      6829      6831      6832      6826      6829      6831      6833
      6826      6829      6831      6834      6826      6829      6835      6836
      6826      6829      6835      6837      6826      6829      6835      6838
      6827      6826      6829      6830      6827      6826      6829      6831
      6827      6826      6829      6835      6828      6826      6829      6830
      6828      6826      6829      6831      6828      6826      6829      6835
      6830      6829      6831      6832      6830      6829      6831      6833
      6830      6829      6831      6834      6830      6829      6835      6836
      6830      6829      6835      6837      6830      6829      6835      6838
      6831      6829      6835      6836      6831      6829      6835      6837
      6831      6829      6835      6838      6832      6831      6829      6835
      6833      6831      6829      6835      6834      6831      6829      6835
      6839      6843      6846      6847      6839      6843      6846      6877
      6839      6885      6882      6877      6839      6885      6882      6883
      6839      6885      6882      6884      6840      6839      6841      6842
      6840      6839      6843      6844      6840      6839      6843      6845
      6840      6839      6843      6846      6840      6839      6885      6882
      6840      6839      6885      6886      6840      6839      6885      6887
      6841      6839      6843      6844      6841      6839      6843      6845
      6841      6839      6843      6846      6841      6839      6885      6882
      6841      6839      6885      6886      6841      6839      6885      6887
      6842      6841      6839      6843      6842      6841      6839      6885
      6843      6839      6885      6882      6843      6839      6885      6886
      6843      6839      6885      6887      6843      6846      6847      6848
      6843      6846      6847      6849      6843      6846      6877      6875
      6843      6846      6877      6878      6843      6846      6877      6882
      6844      6843      6839      6885      6844      6843      6846      6847
      6844      6843      6846      6877      6845      6843      6839      6885
      6845      6843      6846      6847      6845      6843      6846      6877
      6846      6843      6839      6885      6846      6847      6849      6850
      6846      6847      6849      6851      6846      6847      6849      6852
      6846      6877      6875      6852      6846      6877      6875      6872
      6846      6877      6875      6876      6846      6877      6878      6879
      6846      6877      6878      6880      6846      6877      6878      6881
      6846      6877      6882      6883      6846      6877      6882      6884
      6846      6877      6882      6885      6847      6846      6877      6875
      6847      6846      6877      6878      6847      6846      6877      6882
      6847      6849      6852      6853      6847      6849      6852      6854
      6847      6849      6852      6875      6848      6847      6846      6877
      6848      6847      6849      6850      6848      6847      6849      6851
      6848      6847      6849      6852      6849      6847      6846      6877
      6849      6852      6854      6855      6849      6852      6854      6856
      6849      6852      6854      6864      6849      6852      6875      6872
      6849      6852      6875      6876      6849      6852      6875      6877
      6850      6849      6852      6853      6850      6849      6852      6854
      6850      6849      6852      6875      6851      6849      6852      6853
      6851      6849      6852      6854      6851      6849      6852      6875
      6852      6854      6856      6857      6852      6854      6856      6858
      6852      6854      6856      6859      6852      6854      6864      6862
      6852      6854      6864      6865      6852      6854      6864      6869
      6852      6875      6872      6869      6852      6875      6872      6873
      6852      6875      6872      6874      6852      6875      6877      6878
      6852      6875      6877      6882      6853      6852      6854      6855
      6853      6852      6854      6856      6853      6852      6854      6864
      6853      6852      6875      6872      6853      6852      6875      6876
      6853      6852      6875      6877      6854      6852      6875      6872
      6854      6852      6875      6876      6854      6852      6875      6877
      6854      6856      6859      6860      6854      6856      6859      6861
      6854      6856      6859      6862      6854      6864      6862      6859
      6854      6864      6862      6863      6854      6864      6862      6888
      6854      6864      6865      6866      6854      6864      6865      6867
      6854      6864      6865      6868      6854      6864      6869      6870
      6854      6864      6869      6871      6854      6864      6869      6872
      6855      6854      6852      6875      6855      6854      6856      6857
      6855      6854      6856      6858      6855      6854      6856      6859
      6855      6854      6864      6862      6855      6854      6864      6865
      6855      6854      6864      6869      6856      6854      6852      6875
      6856      6854      6864      6862      6856      6854      6864      6865
      6856      6854      6864      6869      6856      6859      6862      6863
      6856      6859      6862      6864      6856      6859      6862      6888
      6857      6856      6854      6864      6857      6856      6859      6860
      6857      6856      6859      6861      6857      6856      6859      6862
      6858      6856      6854      6864      6858      6856      6859      6860
      6858      6856      6859      6861      6858      6856      6859      6862
      6859      6856      6854      6864      6859      6862      6864      6865
      6859      6862      6864      6869      6859      6862      6888      6889
      6859      6862      6888      6890      6859      6862      6888      6894
      6860      6859      6862      6863      6860      6859      6862      6864
      6860      6859      6862      6888      6861      6859      6862      6863
      6861      6859      6862      6864      6861      6859      6862      6888
      6862      6864      6865      6866      6862      6864      6865      6867
      6862      6864      6865      6868      6862      6864      6869      6870
      6862      6864      6869      6871      6862      6864      6869      6872
      6862      6888      6890      6891      6862      6888      6890      6892
      6862      6888      6890      6893      6862      6888      6894      6895
      6862      6888      6894      6896      6862      6888      6894      6897
      6863      6862      6864      6865      6863      6862      6864      6869
      6863      6862      6888      6889      6863      6862      6888      6890
      6863      6862      6888      6894      6864      6854      6852      6875
      6864      6862      6888      6889      6864      6862      6888      6890
      6864      6862      6888      6894      6864      6869      6872      6873
      6864      6869      6872      6874      6864      6869      6872      6875
      6865      6864      6862      6888      6865      6864      6869      6870
      6865      6864      6869      6871      6865      6864      6869      6872
      6866      6865      6864      6869      6867      6865      6864      6869
      6868      6865      6864      6869      6869      6864      6862      6888
      6869      6872      6875      6876      6869      6872      6875      6877
      6870      6869      6872      6873      6870      6869      6872      6874
      6870      6869      6872      6875      6871      6869      6872      6873
      6871      6869      6872      6874      6871      6869      6872      6875
      6872      6875      6877      6878      6872      6875      6877      6882
      6873      6872      6875      6876      6873      6872      6875      6877
      6874      6872      6875      6876      6874      6872      6875      6877
      6875      6877      6878      6879      6875      6877      6878      6880
      6875      6877      6878      6881      6875      6877      6882      6883
      6875      6877      6882      6884      6875      6877      6882      6885
      6876      6875      6877      6878      6876      6875      6877      6882
      6877      6882      6885      6886      6877      6882      6885      6887
      6878      6877      6882      6883      6878      6877      6882      6884
      6878      6877      6882      6885      6879      6878      6877      6882
      6880      6878      6877      6882      6881      6878      6877      6882
      6883      6882      6885      6886      6883      6882      6885      6887
      6884      6882      6885      6886      6884      6882      6885      6887
      6888      6894      6897      6898      6888      6894      6897      6899
      6888      6894      6897      6900      6889      6888      6890      6891
      6889      6888      6890      6892      6889      6888      6890      6893
      6889      6888      6894      6895      6889      6888      6894      6896
      6889      6888      6894      6897      6890      6888      6894      6895
      6890      6888      6894      6896      6890      6888      6894      6897
      6891      6890      6888      6894      6892      6890      6888      6894
      6893      6890      6888      6894      6894      6897      6900      6901
      6894      6897      6900      6902      6894      6897      6900      6903
      6895      6894      6897      6898      6895      6894      6897      6899
      6895      6894      6897      6900      6896      6894      6897      6898
      6896      6894      6897      6899      6896      6894      6897      6900
      6897      6900      6903      6904      6897      6900      6903      6905
      6897      6900      6903      6909      6898      6897      6900      6901
      6898      6897      6900      6902      6898      6897      6900      6903
      6899      6897      6900      6901      6899      6897      6900      6902
      6899      6897      6900      6903      6900      6903      6905      6906
      6900      6903      6905      6907      6900      6903      6905      6908
      6900      6903      6909      6910      6900      6903      6909      6911
      6900      6903      6909      6912      6901      6900      6903      6904
      6901      6900      6903      6905      6901      6900      6903      6909
      6902      6900      6903      6904      6902      6900      6903      6905
      6902      6900      6903      6909      6904      6903      6905      6906
      6904      6903      6905      6907      6904      6903      6905      6908
      6904      6903      6909      6910      6904      6903      6909      6911
      6904      6903      6909      6912      6905      6903      6909      6910
      6905      6903      6909      6911      6905      6903      6909      6912
      6906      6905      6903      6909      6907      6905      6903      6909
      6908      6905      6903      6909      6913      6917      6920      6921
      6913      6917      6920      6951      6913      6959      6956      6951
      6913      6959      6956      6957      6913      6959      6956      6958
      6914      6913      6915      6916      6914      6913      6917      6918
      6914      6913      6917      6919      6914      6913      6917      6920
      6914      6913      6959      6956      6914      6913      6959      6960
      6914      6913      6959      6961      6915      6913      6917      6918
      6915      6913      6917      6919      6915      6913      6917      6920
      6915      6913      6959      6956      6915      6913      6959      6960
      6915      6913      6959      6961      6916      6915      6913      6917
      6916      6915      6913      6959      6917      6913      6959      6956
      6917      6913      6959      6960      6917      6913      6959      6961
      6917      6920      6921      6922      6917      6920      6921      6923
      6917      6920      6951      6949      6917      6920      6951      6952
      6917      6920      6951      6956      6918      6917      6913      6959
      6918      6917      6920      6921      6918      6917      6920      6951
      6919      6917      6913      6959      6919      6917      6920      6921
      6919      6917      6920      6951      6920      6917      6913      6959
      6920      6921      6923      6924      6920      6921      6923      6925
      6920      6921      6923      6926      6920      6951      6949      6926
      6920      6951      6949      6946      6920      6951      6949      6950
      6920      6951      6952      6953      6920      6951      6952      6954
      6920      6951      6952      6955      6920      6951      6956      6957
      6920      6951      6956      6958      6920      6951      6956      6959
      6921      6920      6951      6949      6921      6920      6951      6952
      6921      6920      6951      6956      6921      6923      6926      6927
      6921      6923      6926      6928      6921      6923      6926      6949
      6922      6921      6920      6951      6922      6921      6923      6924
      6922      6921      6923      6925      6922      6921      6923      6926
      6923      6921      6920      6951      6923      6926      6928      6929
      6923      6926      6928      6930      6923      6926      6928      6938
      6923      6926      6949      6946      6923      6926      6949      6950
      6923      6926      6949      6951      6924      6923      6926      6927
      6924      6923      6926      6928      6924      6923      6926      6949
      6925      6923      6926      6927      6925      6923      6926      6928
      6925      6923      6926      6949      6926      6928      6930      6931
      6926      6928      6930      6932      6926      6928      6930      6933
      6926      6928      6938      6936      6926      6928      6938      6939
      6926      6928      6938      6943      6926      6949      6946      6943
      6926      6949      6946      6947      6926      6949      6946      6948
      6926      6949      6951      6952      6926      6949      6951      6956
      6927      6926      6928      6929      6927      6926      6928      6930
      6927      6926      6928      6938      6927      6926      6949      6946
      6927      6926      6949      6950      6927      6926      6949      6951
      6928      6926      6949      6946      6928      6926      6949      6950
      6928      6926      6949      6951      6928      6930      6933      6934
      6928      6930      6933      6935      6928      6930      6933      6936
      6928      6938      6936      6933      6928      6938      6936      6937
      6928      6938      6936      6962      6928      6938      6939      6940
      6928      6938      6939      6941      6928      6938      6939      6942
      6928      6938      6943      6944      6928      6938      6943      6945
      6928      6938      6943      6946      6929      6928      6926      6949
      6929      6928      6930      6931      6929      6928      6930      6932
      6929      6928      6930      6933      6929      6928      6938      6936
      6929      6928      6938      6939      6929      6928      6938      6943
      6930      6928      6926      6949      6930      6928      6938      6936
      6930      6928      6938      6939      6930      6928      6938      6943
      6930      6933      6936      6937      6930      6933      6936      6938
      6930      6933      6936      6962      6931      6930      6928      6938
      6931      6930      6933      6934      6931      6930      6933      6935
      6931      6930      6933      6936      6932      6930      6928      6938
      6932      6930      6933      6934      6932      6930      6933      6935
      6932      6930      6933      6936      6933      6930      6928      6938
      6933      6936      6938      6939      6933      6936      6938      6943
      6933      6936      6962      6963      6933      6936      6962      6964
      6933      6936      6962      6968      6934      6933      6936      6937
      6934      6933      6936      6938      6934      6933      6936      6962
      6935      6933      6936      6937      6935      6933      6936      6938
      6935      6933      6936      6962      6936      6938      6939      6940
      6936      6938      6939      6941      6936      6938      6939      6942
      6936      6938      6943      6944      6936      6938      6943      6945
      6936      6938      6943      6946      6936      6962      6964      6965
      6936      6962      6964      6966      6936      6962      6964      6967
      6936      6962      6968      6969      6936      6962      6968      6970
      6936      6962      6968      6971      6937      6936      6938      6939
      6937      6936      6938      6943      6937      6936      6962      6963
      6937      6936      6962      6964      6937      6936      6962      6968
      6938      6928      6926      6949      6938      6936      6962      6963
      6938      6936      6962      6964      6938      6936      6962      6968
      6938      6943      6946      6947      6938      6943      6946      6948
      6938      6943      6946      6949      6939      6938      6936      6962
      6939      6938      6943      6944      6939      6938      6943      6945
      6939      6938      6943      6946      6940      6939      6938      6943
      6941      6939      6938      6943      6942      6939      6938      6943
      6943      6938      6936      6962      6943      6946      6949      6950
      6943      6946      6949      6951      6944      6943      6946      6947
      6944      6943      6946      6948      6944      6943      6946      6949
      6945      6943      6946      6947      6945      6943      6946      6948
      6945      6943      6946      6949      6946      6949      6951      6952
      6946      6949      6951      6956      6947      6946      6949      6950
      6947      6946      6949      6951      6948      6946      6949      6950
      6948      6946      6949      6951      6949      6951      6952      6953
      6949      6951      6952      6954      6949      6951      6952      6955
      6949      6951      6956      6957      6949      6951      6956      6958
      6949      6951      6956      6959      6950      6949      6951      6952
      6950      6949      6951      6956      6951      6956      6959      6960
      6951      6956      6959      6961      6952      6951      6956      6957
      6952      6951      6956      6958      6952      6951      6956      6959
      6953      6952      6951      6956      6954      6952      6951      6956
      6955      6952      6951      6956      6957      6956      6959      6960
      6957      6956      6959      6961      6958      6956      6959      6960
      6958      6956      6959      6961      6962      6968      6971      6972
      6962      6968      6971      6973      6962      6968      6971      6974
      6963      6962      6964      6965      6963      6962      6964      6966
      6963      6962      6964      6967      6963      6962      6968      6969
      6963      6962      6968      6970      6963      6962      6968      6971
      6964      6962      6968      6969      6964      6962      6968      6970
      6964      6962      6968      6971      6965      6964      6962      6968
      6966      6964      6962      6968      6967      6964      6962      6968
      6968      6971      6974      6975      6968      6971      6974      6976
      6968      6971      6974      6977      6969      6968      6971      6972
      6969      6968      6971      6973      6969      6968      6971      6974
      6970      6968      6971      6972      6970      6968      6971      6973
      6970      6968      6971      6974      6971      6974      6977      6978
      6971      6974      6977      6979      6971      6974      6977      6983
      6972      6971      6974      6975      6972      6971      6974      6976
      6972      6971      6974      6977      6973      6971      6974      6975
      6973      6971      6974      6976      6973      6971      6974      6977
      6974      6977      6979      6980      6974      6977      6979      6981
      6974      6977      6979      6982      6974      6977      6983      6984
      6974      6977      6983      6985      6974      6977      6983      6986
      6975      6974      6977      6978      6975      6974      6977      6979
      6975      6974      6977      6983      6976      6974      6977      6978
      6976      6974      6977      6979      6976      6974      6977      6983
      6978      6977      6979      6980      6978      6977      6979      6981
      6978      6977      6979      6982      6978      6977      6983      6984
      6978      6977      6983      6985      6978      6977      6983      6986
      6979      6977      6983      6984      6979      6977      6983      6985
      6979      6977      6983      6986      6980      6979      6977      6983
      6981      6979      6977      6983      6982      6979      6977      6983
      6987      7000      7003      7004      6987      7000      7003      7005
      6987      7000      7003      7010      6988      6987      6992      6993
      6988      6987      6992      6994      6988      6987      6992      6995
      6988      6987      6996      6997      6988      6987      6996      6998
      6988      6987      6996      6999      6988      6987      7000      7001
      6988      6987      7000      7002      6988      6987      7000      7003
      6989      6988      6987      6992      6989      6988      6987      6996
      6989      6988      6987      7000      6990      6988      6987      6992
      6990      6988      6987      6996      6990      6988      6987      7000
      6991      6988      6987      6992      6991      6988      6987      6996
      6991      6988      6987      7000      6992      6987      6996      6997
      6992      6987      6996      6998      6992      6987      6996      6999
      6992      6987      7000      7001      6992      6987      7000      7002
      6992      6987      7000      7003      6993      6992      6987      6996
      6993      6992      6987      7000      6994      6992      6987      6996
      6994      6992      6987      7000      6995      6992      6987      6996
      6995      6992      6987      7000      6996      6987      7000      7001
      6996      6987      7000      7002      6996      6987      7000      7003
      6997      6996      6987      7000      6998      6996      6987      7000
      6999      6996      6987      7000      7000      7003      7010      7006
      7001      7000      7003      7004      7001      7000      7003      7005
      7001      7000      7003      7010      7002      7000      7003      7004
      7002      7000      7003      7005      7002      7000      7003      7010
      7003      7010      7006      7007      7003      7010      7006      7008
      7003      7010      7006      7009      7004      7003      7010      7006
      7005      7003      7010      7006      7006      7009      7011      7012
      7006      7009      7011      7013      7006      7009      7011      7016
      7007      7006      7009      7011      7008      7006      7009      7011
      7009      7011      7016      7014      7009      7011      7016      7017
      7009      7011      7016      7018      7010      7006      7009      7011
      7011      7016      7014      7015      7011      7016      7014      7066
      7011      7016      7018      7019      7011      7016      7018      7020
      7011      7016      7018      7022      7012      7011      7016      7014
      7012      7011      7016      7017      7012      7011      7016      7018
      7013      7011      7016      7014      7013      7011      7016      7017
      7013      7011      7016      7018      7014      7016      7018      7019
      7014      7016      7018      7020      7014      7016      7018      7022
      7014      7066      7068      7069      7014      7066      7068      7070
      7014      7066      7068      7071      7015      7014      7016      7017
      7015      7014      7016      7018      7015      7014      7066      7067
      7015      7014      7066      7068      7016      7014      7066      7067
      7016      7014      7066      7068      7016      7018      7020      7021
      7016      7018      7022      7023      7016      7018      7022      7024
      7017      7016      7014      7066      7017      7016      7018      7019
      7017      7016      7018      7020      7017      7016      7018      7022
      7018      7016      7014      7066      7018      7022      7024      7025
      7018      7022      7024      7026      7019      7018      7020      7021
      7019      7018      7022      7023      7019      7018      7022      7024
      7020      7018      7022      7023      7020      7018      7022      7024
      7021      7020      7018      7022      7022      7024      7026      7027
      7022      7024      7026      7028      7022      7024      7026      7029
      7023      7022      7024      7025      7023      7022      7024      7026
      7024      7026      7029      7030      7024      7026      7029      7031
      7024      7026      7029      7032      7025      7024      7026      7027
      7025      7024      7026      7028      7025      7024      7026      7029
      7026      7029      7032      7033      7026      7029      7032      7034
      7026      7029      7032      7035      7027      7026      7029      7030
      7027      7026      7029      7031      7027      7026      7029      7032
      7028      7026      7029      7030      7028      7026      7029      7031
      7028      7026      7029      7032      7029      7032      7035      7036
      7029      7032      7035      7037      7029      7032      7035      7038
      7030      7029      7032      7033      7030      7029      7032      7034
      7030      7029      7032      7035      7031      7029      7032      7033
      7031      7029      7032      7034      7031      7029      7032      7035
      7032      7035      7038      7039      7032      7035      7038      7040
      7032      7035      7038      7041      7033      7032      7035      7036
      7033      7032      7035      7037      7033      7032      7035      7038
      7034      7032      7035      7036      7034      7032      7035      7037
      7034      7032      7035      7038      7035      7038      7041      7042
      7035      7038      7041      7043      7035      7038      7041      7044
      7036      7035      7038      7039      7036      7035      7038      7040
      7036      7035      7038      7041      7037      7035      7038      7039
      7037      7035      7038      7040      7037      7035      7038      7041
      7038      7041      7044      7045      7038      7041      7044      7046
      7038      7041      7044      7047      7039      7038      7041      7042
      7039      7038      7041      7043      7039      7038      7041      7044
      7040      7038      7041      7042      7040      7038      7041      7043
      7040      7038      7041      7044      7041      7044      7047      7048
      7041      7044      7047      7049      7041      7044      7047      7050
      7042      7041      7044      7045      7042      7041      7044      7046
      7042      7041      7044      7047      7043      7041      7044      7045
      7043      7041      7044      7046      7043      7041      7044      7047
      7044      7047      7050      7051      7044      7047      7050      7052
      7044      7047      7050      7053      7045      7044      7047      7048
      7045      7044      7047      7049      7045      7044      7047      7050
      7046      7044      7047      7048      7046      7044      7047      7049
      7046      7044      7047      7050      7047      7050      7053      7054
      7047      7050      7053      7055      7047      7050      7053      7056
      7048      7047      7050      7051      7048      7047      7050      7052
      7048      7047      7050      7053      7049      7047      7050      7051
      7049      7047      7050      7052      7049      7047      7050      7053
      7050      7053      7056      7057      7050      7053      7056      7058
      7050      7053      7056      7059      7051      7050      7053      7054
      7051      7050      7053      7055      7051      7050      7053      7056
      7052      7050      7053      7054      7052      7050      7053      7055
      7052      7050      7053      7056      7053      7056      7059      7060
      7053      7056      7059      7061      7053      7056      7059      7062
      7054      7053      7056      7057      7054      7053      7056      7058
      7054      7053      7056      7059      7055      7053      7056      7057
      7055      7053      7056      7058      7055      7053      7056      7059
      7056      7059      7062      7063      7056      7059      7062      7064
      7056      7059      7062      7065      7057      7056      7059      7060
      7057      7056      7059      7061      7057      7056      7059      7062
      7058      7056      7059      7060      7058      7056      7059      7061
      7058      7056      7059      7062      7060      7059      7062      7063
      7060      7059      7062      7064      7060      7059      7062      7065
      7061      7059      7062      7063      7061      7059      7062      7064
      7061      7059      7062      7065      7066      7068      7071      7072
      7066      7068      7071      7073      7066      7068      7071      7074
      7067      7066      7068      7069      7067      7066      7068      7070
      7067      7066      7068      7071      7068      7071      7074      7075
      7068      7071      7074      7076      7068      7071      7074      7077
      7069      7068      7071      7072      7069      7068      7071      7073
      7069      7068      7071      7074      7070      7068      7071      7072
      7070      7068      7071      7073      7070      7068      7071      7074
      7071      7074      7077      7078      7071      7074      7077      7079
      7071      7074      7077      7080      7072      7071      7074      7075
      7072      7071      7074      7076      7072      7071      7074      7077
      7073      7071      7074      7075      7073      7071      7074      7076
      7073      7071      7074      7077      7074      7077      7080      7081
      7074      7077      7080      7082      7074      7077      7080      7083
      7075      7074      7077      7078      7075      7074      7077      7079
      7075      7074      7077      7080      7076      7074      7077      7078
      7076      7074      7077      7079      7076      7074      7077      7080
      7077      7080      7083      7084      7077      7080      7083      7085
      7077      7080      7083      7086      7078      7077      7080      7081
      7078      7077      7080      7082      7078      7077      7080      7083
      7079      7077      7080      7081      7079      7077      7080      7082
      7079      7077      7080      7083      7080      7083      7086      7087
      7080      7083      7086      7088      7080      7083      7086      7089
      7081      7080      7083      7084      7081      7080      7083      7085
      7081      7080      7083      7086      7082      7080      7083      7084
      7082      7080      7083      7085      7082      7080      7083      7086
      7083      7086      7089      7090      7083      7086      7089      7091
      7084      7083      7086      7087      7084      7083      7086      7088
      7084      7083      7086      7089      7085      7083      7086      7087
      7085      7083      7086      7088      7085      7083      7086      7089
      7086      7089      7091      7092      7086      7089      7091      7093
      7087      7086      7089      7090      7087      7086      7089      7091
      7088      7086      7089      7090      7088      7086      7089      7091
      7089      7091      7093      7094      7089      7091      7093      7095
      7089      7091      7093      7096      7090      7089      7091      7092
      7090      7089      7091      7093      7091      7093      7096      7097
      7091      7093      7096      7098      7091      7093      7096      7099
      7092      7091      7093      7094      7092      7091      7093      7095
      7092      7091      7093      7096      7093      7096      7099      7100
      7093      7096      7099      7101      7093      7096      7099      7102
      7094      7093      7096      7097      7094      7093      7096      7098
      7094      7093      7096      7099      7095      7093      7096      7097
      7095      7093      7096      7098      7095      7093      7096      7099
      7096      7099      7102      7103      7096      7099      7102      7104
      7096      7099      7102      7105      7097      7096      7099      7100
      7097      7096      7099      7101      7097      7096      7099      7102
      7098      7096      7099      7100      7098      7096      7099      7101
      7098      7096      7099      7102      7099      7102      7105      7106
      7099      7102      7105      7107      7099      7102      7105      7108
      7100      7099      7102      7103      7100      7099      7102      7104
      7100      7099      7102      7105      7101      7099      7102      7103
      7101      7099      7102      7104      7101      7099      7102      7105
      7102      7105      7108      7109      7102      7105      7108      7110
      7102      7105      7108      7111      7103      7102      7105      7106
      7103      7102      7105      7107      7103      7102      7105      7108
      7104      7102      7105      7106      7104      7102      7105      7107
      7104      7102      7105      7108      7105      7108      7111      7112
      7105      7108      7111      7113      7105      7108      7111      7114
      7106      7105      7108      7109      7106      7105      7108      7110
      7106      7105      7108      7111      7107      7105      7108      7109
      7107      7105      7108      7110      7107      7105      7108      7111
      7108      7111      7114      7115      7108      7111      7114      7116
      7108      7111      7114      7117      7109      7108      7111      7112
      7109      7108      7111      7113      7109      7108      7111      7114
      7110      7108      7111      7112      7110      7108      7111      7113
      7110      7108      7111      7114      7112      7111      7114      7115
      7112      7111      7114      7116      7112      7111      7114      7117
      7113      7111      7114      7115      7113      7111      7114      7116
      7113      7111      7114      7117      7118      7122      7125      7126
      7118      7122      7125      7156      7118      7164      7161      7156
      7118      7164      7161      7162      7118      7164      7161      7163
      7119      7118      7120      7121      7119      7118      7122      7123
      7119      7118      7122      7124      7119      7118      7122      7125
      7119      7118      7164      7161      7119      7118      7164      7165
      7119      7118      7164      7166      7120      7118      7122      7123
      7120      7118      7122      7124      7120      7118      7122      7125
      7120      7118      7164      7161      7120      7118      7164      7165
      7120      7118      7164      7166      7121      7120      7118      7122
      7121      7120      7118      7164      7122      7118      7164      7161
      7122      7118      7164      7165      7122      7118      7164      7166
      7122      7125      7126      7127      7122      7125      7126      7128
      7122      7125      7156      7154      7122      7125      7156      7157
      7122      7125      7156      7161      7123      7122      7118      7164
      7123      7122      7125      7126      7123      7122      7125      7156
      7124      7122      7118      7164      7124      7122      7125      7126
      7124      7122      7125      7156      7125      7122      7118      7164
      7125      7126      7128      7129      7125      7126      7128      7130
      7125      7126      7128      7131      7125      7156      7154      7131
      7125      7156      7154      7151      7125      7156      7154      7155
      7125      7156      7157      7158      7125      7156      7157      7159
      7125      7156      7157      7160      7125      7156      7161      7162
      7125      7156      7161      7163      7125      7156      7161      7164
      7126      7125      7156      7154      7126      7125      7156      7157
      7126      7125      7156      7161      7126      7128      7131      7132
      7126      7128      7131      7133      7126      7128      7131      7154
      7127      7126      7125      7156      7127      7126      7128      7129
      7127      7126      7128      7130      7127      7126      7128      7131
      7128      7126      7125      7156      7128      7131      7133      7134
      7128      7131      7133      7135      7128      7131      7133      7143
      7128      7131      7154      7151      7128      7131      7154      7155
      7128      7131      7154      7156      7129      7128      7131      7132
      7129      7128      7131      7133      7129      7128      7131      7154
      7130      7128      7131      7132      7130      7128      7131      7133
      7130      7128      7131      7154      7131      7133      7135      7136
      7131      7133      7135      7137      7131      7133      7135      7138
      7131      7133      7143      7141      7131      7133      7143      7144
      7131      7133      7143      7148      7131      7154      7151      7148
      7131      7154      7151      7152      7131      7154      7151      7153
      7131      7154      7156      7157      7131      7154      7156      7161
      7132      7131      7133      7134      7132      7131      7133      7135
      7132      7131      7133      7143      7132      7131      7154      7151
      7132      7131      7154      7155      7132      7131      7154      7156
      7133      7131      7154      7151      7133      7131      7154      7155
      7133      7131      7154      7156      7133      7135      7138      7139
      7133      7135      7138      7140      7133      7135      7138      7141
      7133      7143      7141      7138      7133      7143      7141      7142
      7133      7143      7141      7167      7133      7143      7144      7145
      7133      7143      7144      7146      7133      7143      7144      7147
      7133      7143      7148      7149      7133      7143      7148      7150
      7133      7143      7148      7151      7134      7133      7131      7154
      7134      7133      7135      7136      7134      7133      7135      7137
      7134      7133      7135      7138      7134      7133      7143      7141
      7134      7133      7143      7144      7134      7133      7143      7148
      7135      7133      7131      7154      7135      7133      7143      7141
      7135      7133      7143      7144      7135      7133      7143      7148
      7135      7138      7141      7142      7135      7138      7141      7143
      7135      7138      7141      7167      7136      7135      7133      7143
      7136      7135      7138      7139      7136      7135      7138      7140
      7136      7135      7138      7141      7137      7135      7133      7143
      7137      7135      7138      7139      7137      7135      7138      7140
      7137      7135      7138      7141      7138      7135      7133      7143
      7138      7141      7143      7144      7138      7141      7143      7148
      7138      7141      7167      7168      7138      7141      7167      7169
      7138      7141      7167      7173      7139      7138      7141      7142
      7139      7138      7141      7143      7139      7138      7141      7167
      7140      7138      7141      7142      7140      7138      7141      7143
      7140      7138      7141      7167      7141      7143      7144      7145
      7141      7143      7144      7146      7141      7143      7144      7147
      7141      7143      7148      7149      7141      7143      7148      7150
      7141      7143      7148      7151      7141      7167      7169      7170
      7141      7167      7169      7171      7141      7167      7169      7172
      7141      7167      7173      7174      7141      7167      7173      7175
      7141      7167      7173      7176      7142      7141      7143      7144
      7142      7141      7143      7148      7142      7141      7167      7168
      7142      7141      7167      7169      7142      7141      7167      7173
      7143      7133      7131      7154      7143      7141      7167      7168
      7143      7141      7167      7169      7143      7141      7167      7173
      7143      7148      7151      7152      7143      7148      7151      7153
      7143      7148      7151      7154      7144      7143      7141      7167
      7144      7143      7148      7149      7144      7143      7148      7150
      7144      7143      7148      7151      7145      7144      7143      7148
      7146      7144      7143      7148      7147      7144      7143      7148
      7148      7143      7141      7167      7148      7151      7154      7155
      7148      7151      7154      7156      7149      7148      7151      7152
      7149      7148      7151      7153      7149      7148      7151      7154
      7150      7148      7151      7152      7150      7148      7151      7153
      7150      7148      7151      7154      7151      7154      7156      7157
      7151      7154      7156      7161      7152      7151      7154      7155
      7152      7151      7154      7156      7153      7151      7154      7155
      7153      7151      7154      7156      7154      7156      7157      7158
      7154      7156      7157      7159      7154      7156      7157      7160
      7154      7156      7161      7162      7154      7156      7161      7163
      7154      7156      7161      7164      7155      7154      7156      7157
      7155      7154      7156      7161      7156      7161      7164      7165
      7156      7161      7164      7166      7157      7156      7161      7162
      7157      7156      7161      7163      7157      7156      7161      7164
      7158      7157      7156      7161      7159      7157      7156      7161
      7160      7157      7156      7161      7162      7161      7164      7165
      7162      7161      7164      7166      7163      7161      7164      7165
      7163      7161      7164      7166      7167      7173      7176      7177
      7167      7173      7176      7178      7167      7173      7176      7179
      7168      7167      7169      7170      7168      7167      7169      7171
      7168      7167      7169      7172      7168      7167      7173      7174
      7168      7167      7173      7175      7168      7167      7173      7176
      7169      7167      7173      7174      7169      7167      7173      7175
      7169      7167      7173      7176      7170      7169      7167      7173
      7171      7169      7167      7173      7172      7169      7167      7173
      7173      7176      7179      7180      7173      7176      7179      7181
      7173      7176      7179      7182      7174      7173      7176      7177
      7174      7173      7176      7178      7174      7173      7176      7179
      7175      7173      7176      7177      7175      7173      7176      7178
      7175      7173      7176      7179      7176      7179      7182      7183
      7176      7179      7182      7184      7176      7179      7182      7188
      7177      7176      7179      7180      7177      7176      7179      7181
      7177      7176      7179      7182      7178      7176      7179      7180
      7178      7176      7179      7181      7178      7176      7179      7182
      7179      7182      7184      7185      7179      7182      7184      7186
      7179      7182      7184      7187      7179      7182      7188      7189
      7179      7182      7188      7190      7179      7182      7188      7191
      7180      7179      7182      7183      7180      7179      7182      7184
      7180      7179      7182      7188      7181      7179      7182      7183
      7181      7179      7182      7184      7181      7179      7182      7188
      7183      7182      7184      7185      7183      7182      7184      7186
      7183      7182      7184      7187      7183      7182      7188      7189
      7183      7182      7188      7190      7183      7182      7188      7191
      7184      7182      7188      7189      7184      7182      7188      7190
      7184      7182      7188      7191      7185      7184      7182      7188
      7186      7184      7182      7188      7187      7184      7182      7188
      7192      7196      7199      7200      7192      7196      7199      7230
      7192      7238      7235      7230      7192      7238      7235      7236
      7192      7238      7235      7237      7193      7192      7194      7195
      7193      7192      7196      7197      7193      7192      7196      7198
      7193      7192      7196      7199      7193      7192      7238      7235
      7193      7192      7238      7239      7193      7192      7238      7240
      7194      7192      7196      7197      7194      7192      7196      7198
      7194      7192      7196      7199      7194      7192      7238      7235
      7194      7192      7238      7239      7194      7192      7238      7240
      7195      7194      7192      7196      7195      7194      7192      7238
      7196      7192      7238      7235      7196      7192      7238      7239
      7196      7192      7238      7240      7196      7199      7200      7201
      7196      7199      7200      7202      7196      7199      7230      7228
      7196      7199      7230      7231      7196      7199      7230      7235
      7197      7196      7192      7238      7197      7196      7199      7200
      7197      7196      7199      7230      7198      7196      7192      7238
      7198      7196      7199      7200      7198      7196      7199      7230
      7199      7196      7192      7238      7199      7200      7202      7203
      7199      7200      7202      7204      7199      7200      7202      7205
      7199      7230      7228      7205      7199      7230      7228      7225
      7199      7230      7228      7229      7199      7230      7231      7232
      7199      7230      7231      7233      7199      7230      7231      7234
      7199      7230      7235      7236      7199      7230      7235      7237
      7199      7230      7235      7238      7200      7199      7230      7228
      7200      7199      7230      7231      7200      7199      7230      7235
      7200      7202      7205      7206      7200      7202      7205      7207
      7200      7202      7205      7228      7201      7200      7199      7230
      7201      7200      7202      7203      7201      7200      7202      7204
      7201      7200      7202      7205      7202      7200      7199      7230
      7202      7205      7207      7208      7202      7205      7207      7209
      7202      7205      7207      7217      7202      7205      7228      7225
      7202      7205      7228      7229      7202      7205      7228      7230
      7203      7202      7205      7206      7203      7202      7205      7207
      7203      7202      7205      7228      7204      7202      7205      7206
      7204      7202      7205      7207      7204      7202      7205      7228
      7205      7207      7209      7210      7205      7207      7209      7211
      7205      7207      7209      7212      7205      7207      7217      7215
      7205      7207      7217      7218      7205      7207      7217      7222
      7205      7228      7225      7222      7205      7228      7225      7226
      7205      7228      7225      7227      7205      7228      7230      7231
      7205      7228      7230      7235      7206      7205      7207      7208
      7206      7205      7207      7209      7206      7205      7207      7217
      7206      7205      7228      7225      7206      7205      7228      7229
      7206      7205      7228      7230      7207      7205      7228      7225
      7207      7205      7228      7229      7207      7205      7228      7230
      7207      7209      7212      7213      7207      7209      7212      7214
      7207      7209      7212      7215      7207      7217      7215      7212
      7207      7217      7215      7216      7207      7217      7215      7241
      7207      7217      7218      7219      7207      7217      7218      7220
      7207      7217      7218      7221      7207      7217      7222      7223
      7207      7217      7222      7224      7207      7217      7222      7225
      7208      7207      7205      7228      7208      7207      7209      7210
      7208      7207      7209      7211      7208      7207      7209      7212
      7208      7207      7217      7215      7208      7207      7217      7218
      7208      7207      7217      7222      7209      7207      7205      7228
      7209      7207      7217      7215      7209      7207      7217      7218
      7209      7207      7217      7222      7209      7212      7215      7216
      7209      7212      7215      7217      7209      7212      7215      7241
      7210      7209      7207      7217      7210      7209      7212      7213
      7210      7209      7212      7214      7210      7209      7212      7215
      7211      7209      7207      7217      7211      7209      7212      7213
      7211      7209      7212      7214      7211      7209      7212      7215
      7212      7209      7207      7217      7212      7215      7217      7218
      7212      7215      7217      7222      7212      7215      7241      7242
      7212      7215      7241      7243      7212      7215      7241      7247
      7213      7212      7215      7216      7213      7212      7215      7217
      7213      7212      7215      7241      7214      7212      7215      7216
      7214      7212      7215      7217      7214      7212      7215      7241
      7215      7217      7218      7219      7215      7217      7218      7220
      7215      7217      7218      7221      7215      7217      7222      7223
      7215      7217      7222      7224      7215      7217      7222      7225
      7215      7241      7243      7244      7215      7241      7243      7245
      7215      7241      7243      7246      7215      7241      7247      7248
      7215      7241      7247      7249      7215      7241      7247      7250
      7216      7215      7217      7218      7216      7215      7217      7222
      7216      7215      7241      7242      7216      7215      7241      7243
      7216      7215      7241      7247      7217      7207      7205      7228
      7217      7215      7241      7242      7217      7215      7241      7243
      7217      7215      7241      7247      7217      7222      7225      7226
      7217      7222      7225      7227      7217      7222      7225      7228
      7218      7217      7215      7241      7218      7217      7222      7223
      7218      7217      7222      7224      7218      7217      7222      7225
      7219      7218      7217      7222      7220      7218      7217      7222
      7221      7218      7217      7222      7222      7217      7215      7241
      7222      7225      7228      7229      7222      7225      7228      7230
      7223      7222      7225      7226      7223      7222      7225      7227
      7223      7222      7225      7228      7224      7222      7225      7226
      7224      7222      7225      7227      7224      7222      7225      7228
      7225      7228      7230      7231      7225      7228      7230      7235
      7226      7225      7228      7229      7226      7225      7228      7230
      7227      7225      7228      7229      7227      7225      7228      7230
      7228      7230      7231      7232      7228      7230      7231      7233
      7228      7230      7231      7234      7228      7230      7235      7236
      7228      7230      7235      7237      7228      7230      7235      7238
      7229      7228      7230      7231      7229      7228      7230      7235
      7230      7235      7238      7239      7230      7235      7238      7240
      7231      7230      7235      7236      7231      7230      7235      7237
      7231      7230      7235      7238      7232      7231      7230      7235
      7233      7231      7230      7235      7234      7231      7230      7235
      7236      7235      7238      7239      7236      7235      7238      7240
      7237      7235      7238      7239      7237      7235      7238      7240
      7241      7247      7250      7251      7241      7247      7250      7252
      7241      7247      7250      7253      7242      7241      7243      7244
      7242      7241      7243      7245      7242      7241      7243      7246
      7242      7241      7247      7248      7242      7241      7247      7249
      7242      7241      7247      7250      7243      7241      7247      7248
      7243      7241      7247      7249      7243      7241      7247      7250
      7244      7243      7241      7247      7245      7243      7241      7247
      7246      7243      7241      7247      7247      7250      7253      7254
      7247      7250      7253      7255      7247      7250      7253      7256
      7248      7247      7250      7251      7248      7247      7250      7252
      7248      7247      7250      7253      7249      7247      7250      7251
      7249      7247      7250      7252      7249      7247      7250      7253
      7250      7253      7256      7257      7250      7253      7256      7258
      7250      7253      7256      7262      7251      7250      7253      7254
      7251      7250      7253      7255      7251      7250      7253      7256
      7252      7250      7253      7254      7252      7250      7253      7255
      7252      7250      7253      7256      7253      7256      7258      7259
      7253      7256      7258      7260      7253      7256      7258      7261
      7253      7256      7262      7263      7253      7256      7262      7264
      7253      7256      7262      7265      7254      7253      7256      7257
      7254      7253      7256      7258      7254      7253      7256      7262
      7255      7253      7256      7257      7255      7253      7256      7258
      7255      7253      7256      7262      7257      7256      7258      7259
      7257      7256      7258      7260      7257      7256      7258      7261
      7257      7256      7262      7263      7257      7256      7262      7264
      7257      7256      7262      7265      7258      7256      7262      7263
      7258      7256      7262      7264      7258      7256      7262      7265
      7259      7258      7256      7262      7260      7258      7256      7262
      7261      7258      7256      7262      7266      7279      7282      7283
      7266      7279      7282      7284      7266      7279      7282      7289
      7267      7266      7271      7272      7267      7266      7271      7273
      7267      7266      7271      7274      7267      7266      7275      7276
      7267      7266      7275      7277      7267      7266      7275      7278
      7267      7266      7279      7280      7267      7266      7279      7281
      7267      7266      7279      7282      7268      7267      7266      7271
      7268      7267      7266      7275      7268      7267      7266      7279
      7269      7267      7266      7271      7269      7267      7266      7275
      7269      7267      7266      7279      7270      7267      7266      7271
      7270      7267      7266      7275      7270      7267      7266      7279
      7271      7266      7275      7276      7271      7266      7275      7277
      7271      7266      7275      7278      7271      7266      7279      7280
      7271      7266      7279      7281      7271      7266      7279      7282
      7272      7271      7266      7275      7272      7271      7266      7279
      7273      7271      7266      7275      7273      7271      7266      7279
      7274      7271      7266      7275      7274      7271      7266      7279
      7275      7266      7279      7280      7275      7266      7279      7281
      7275      7266      7279      7282      7276      7275      7266      7279
      7277      7275      7266      7279      7278      7275      7266      7279
      7279      7282      7289      7285      7280      7279      7282      7283
      7280      7279      7282      7284      7280      7279      7282      7289
      7281      7279      7282      7283      7281      7279      7282      7284
      7281      7279      7282      7289      7282      7289      7285      7286
      7282      7289      7285      7287      7282      7289      7285      7288
      7283      7282      7289      7285      7284      7282      7289      7285
      7285      7288      7290      7291      7285      7288      7290      7292
      7285      7288      7290      7295      7286      7285      7288      7290
      7287      7285      7288      7290      7288      7290      7295      7293
      7288      7290      7295      7296      7288      7290      7295      7297
      7289      7285      7288      7290      7290      7295      7293      7294
      7290      7295      7293      7345      7290      7295      7297      7298
      7290      7295      7297      7299      7290      7295      7297      7301
      7291      7290      7295      7293      7291      7290      7295      7296
      7291      7290      7295      7297      7292      7290      7295      7293
      7292      7290      7295      7296      7292      7290      7295      7297
      7293      7295      7297      7298      7293      7295      7297      7299
      7293      7295      7297      7301      7293      7345      7347      7348
      7293      7345      7347      7349      7293      7345      7347      7350
      7294      7293      7295      7296      7294      7293      7295      7297
      7294      7293      7345      7346      7294      7293      7345      7347
      7295      7293      7345      7346      7295      7293      7345      7347
      7295      7297      7299      7300      7295      7297      7301      7302
      7295      7297      7301      7303      7296      7295      7293      7345
      7296      7295      7297      7298      7296      7295      7297      7299
      7296      7295      7297      7301      7297      7295      7293      7345
      7297      7301      7303      7304      7297      7301      7303      7305
      7298      7297      7299      7300      7298      7297      7301      7302
      7298      7297      7301      7303      7299      7297      7301      7302
      7299      7297      7301      7303      7300      7299      7297      7301
      7301      7303      7305      7306      7301      7303      7305      7307
      7301      7303      7305      7308      7302      7301      7303      7304
      7302      7301      7303      7305      7303      7305      7308      7309
      7303      7305      7308      7310      7303      7305      7308      7311
      7304      7303      7305      7306      7304      7303      7305      7307
      7304      7303      7305      7308      7305      7308      7311      7312
      7305      7308      7311      7313      7305      7308      7311      7314
      7306      7305      7308      7309      7306      7305      7308      7310
      7306      7305      7308      7311      7307      7305      7308      7309
      7307      7305      7308      7310      7307      7305      7308      7311
      7308      7311      7314      7315      7308      7311      7314      7316
      7308      7311      7314      7317      7309      7308      7311      7312
      7309      7308      7311      7313      7309      7308      7311      7314
      7310      7308      7311      7312      7310      7308      7311      7313
      7310      7308      7311      7314      7311      7314      7317      7318
      7311      7314      7317      7319      7311      7314      7317      7320
      7312      7311      7314      7315      7312      7311      7314      7316
      7312      7311      7314      7317      7313      7311      7314      7315
      7313      7311      7314      7316      7313      7311      7314      7317
      7314      7317      7320      7321      7314      7317      7320      7322
      7314      7317      7320      7323      7315      7314      7317      7318
      7315      7314      7317      7319      7315      7314      7317      7320
      7316      7314      7317      7318      7316      7314      7317      7319
      7316      7314      7317      7320      7317      7320      7323      7324
      7317      7320      7323      7325      7317      7320      7323      7326
      7318      7317      7320      7321      7318      7317      7320      7322
      7318      7317      7320      7323      7319      7317      7320      7321
      7319      7317      7320      7322      7319      7317      7320      7323
      7320      7323      7326      7327      7320      7323      7326      7328
      7320      7323      7326      7329      7321      7320      7323      7324
      7321      7320      7323      7325      7321      7320      7323      7326
      7322      7320      7323      7324      7322      7320      7323      7325
      7322      7320      7323      7326      7323      7326      7329      7330
      7323      7326      7329      7331      7323      7326      7329      7332
      7324      7323      7326      7327      7324      7323      7326      7328
      7324      7323      7326      7329      7325      7323      7326      7327
      7325      7323      7326      7328      7325      7323      7326      7329
      7326      7329      7332      7333      7326      7329      7332      7334
      7326      7329      7332      7335      7327      7326      7329      7330
      7327      7326      7329      7331      7327      7326      7329      7332
      7328      7326      7329      7330      7328      7326      7329      7331
      7328      7326      7329      7332      7329      7332      7335      7336
      7329      7332      7335      7337      7329      7332      7335      7338
      7330      7329      7332      7333      7330      7329      7332      7334
      7330      7329      7332      7335      7331      7329      7332      7333
      7331      7329      7332      7334      7331      7329      7332      7335
      7332      7335      7338      7339      7332      7335      7338      7340
      7332      7335      7338      7341      7333      7332      7335      7336
      7333      7332      7335      7337      7333      7332      7335      7338
      7334      7332      7335      7336      7334      7332      7335      7337
      7334      7332      7335      7338      7335      7338      7341      7342
      7335      7338      7341      7343      7335      7338      7341      7344
      7336      7335      7338      7339      7336      7335      7338      7340
      7336      7335      7338      7341      7337      7335      7338      7339
      7337      7335      7338      7340      7337      7335      7338      7341
      7339      7338      7341      7342      7339      7338      7341      7343
      7339      7338      7341      7344      7340      7338      7341      7342
      7340      7338      7341      7343      7340      7338      7341      7344
      7345      7347      7350      7351      7345      7347      7350      7352
      7345      7347      7350      7353      7346      7345      7347      7348
      7346      7345      7347      7349      7346      7345      7347      7350
      7347      7350      7353      7354      7347      7350      7353      7355
      7347      7350      7353      7356      7348      7347      7350      7351
      7348      7347      7350      7352      7348      7347      7350      7353
      7349      7347      7350      7351      7349      7347      7350      7352
      7349      7347      7350      7353      7350      7353      7356      7357
      7350      7353      7356      7358      7350      7353      7356      7359
      7351      7350      7353      7354      7351      7350      7353      7355
      7351      7350      7353      7356      7352      7350      7353      7354
      7352      7350      7353      7355      7352      7350      7353      7356
      7353      7356      7359      7360      7353      7356      7359      7361
      7353      7356      7359      7362      7354      7353      7356      7357
      7354      7353      7356      7358      7354      7353      7356      7359
      7355      7353      7356      7357      7355      7353      7356      7358
      7355      7353      7356      7359      7356      7359      7362      7363
      7356      7359      7362      7364      7356      7359      7362      7365
      7357      7356      7359      7360      7357      7356      7359      7361
      7357      7356      7359      7362      7358      7356      7359      7360
      7358      7356      7359      7361      7358      7356      7359      7362
      7359      7362      7365      7366      7359      7362      7365      7367
      7359      7362      7365      7368      7360      7359      7362      7363
      7360      7359      7362      7364      7360      7359      7362      7365
      7361      7359      7362      7363      7361      7359      7362      7364
      7361      7359      7362      7365      7362      7365      7368      7369
      7362      7365      7368      7370      7363      7362      7365      7366
      7363      7362      7365      7367      7363      7362      7365      7368
      7364      7362      7365      7366      7364      7362      7365      7367
      7364      7362      7365      7368      7365      7368      7370      7371
      7365      7368      7370      7372      7366      7365      7368      7369
      7366      7365      7368      7370      7367      7365      7368      7369
      7367      7365      7368      7370      7368      7370      7372      7373
      7368      7370      7372      7374      7368      7370      7372      7375
      7369      7368      7370      7371      7369      7368      7370      7372
      7370      7372      7375      7376      7370      7372      7375      7377
      7370      7372      7375      7378      7371      7370      7372      7373
      7371      7370      7372      7374      7371      7370      7372      7375
      7372      7375      7378      7379      7372      7375      7378      7380
      7372      7375      7378      7381      7373      7372      7375      7376
      7373      7372      7375      7377      7373      7372      7375      7378
      7374      7372      7375      7376      7374      7372      7375      7377
      7374      7372      7375      7378      7375      7378      7381      7382
      7375      7378      7381      7383      7375      7378      7381      7384
      7376      7375      7378      7379      7376      7375      7378      7380
      7376      7375      7378      7381      7377      7375      7378      7379
      7377      7375      7378      7380      7377      7375      7378      7381
      7378      7381      7384      7385      7378      7381      7384      7386
      7378      7381      7384      7387      7379      7378      7381      7382
      7379      7378      7381      7383      7379      7378      7381      7384
      7380      7378      7381      7382      7380      7378      7381      7383
      7380      7378      7381      7384      7381      7384      7387      7388
      7381      7384      7387      7389      7381      7384      7387      7390
      7382      7381      7384      7385      7382      7381      7384      7386
      7382      7381      7384      7387      7383      7381      7384      7385
      7383      7381      7384      7386      7383      7381      7384      7387
      7384      7387      7390      7391      7384      7387      7390      7392
      7384      7387      7390      7393      7385      7384      7387      7388
      7385      7384      7387      7389      7385      7384      7387      7390
      7386      7384      7387      7388      7386      7384      7387      7389
      7386      7384      7387      7390      7387      7390      7393      7394
      7387      7390      7393      7395      7387      7390      7393      7396
      7388      7387      7390      7391      7388      7387      7390      7392
      7388      7387      7390      7393      7389      7387      7390      7391
      7389      7387      7390      7392      7389      7387      7390      7393
      7391      7390      7393      7394      7391      7390      7393      7395
      7391      7390      7393      7396      7392      7390      7393      7394
      7392      7390      7393      7395      7392      7390      7393      7396
      7397      7401      7404      7405      7397      7401      7404      7435
      7397      7443      7440      7435      7397      7443      7440      7441
      7397      7443      7440      7442      7398      7397      7399      7400
      7398      7397      7401      7402      7398      7397      7401      7403
      7398      7397      7401      7404      7398      7397      7443      7440
      7398      7397      7443      7444      7398      7397      7443      7445
      7399      7397      7401      7402      7399      7397      7401      7403
      7399      7397      7401      7404      7399      7397      7443      7440
      7399      7397      7443      7444      7399      7397      7443      7445
      7400      7399      7397      7401      7400      7399      7397      7443
      7401      7397      7443      7440      7401      7397      7443      7444
      7401      7397      7443      7445      7401      7404      7405      7406
      7401      7404      7405      7407      7401      7404      7435      7433
      7401      7404      7435      7436      7401      7404      7435      7440
      7402      7401      7397      7443      7402      7401      7404      7405
      7402      7401      7404      7435      7403      7401      7397      7443
      7403      7401      7404      7405      7403      7401      7404      7435
      7404      7401      7397      7443      7404      7405      7407      7408
      7404      7405      7407      7409      7404      7405      7407      7410
      7404      7435      7433      7410      7404      7435      7433      7430
      7404      7435      7433      7434      7404      7435      7436      7437
      7404      7435      7436      7438      7404      7435      7436      7439
      7404      7435      7440      7441      7404      7435      7440      7442
      7404      7435      7440      7443      7405      7404      7435      7433
      7405      7404      7435      7436      7405      7404      7435      7440
      7405      7407      7410      7411      7405      7407      7410      7412
      7405      7407      7410      7433      7406      7405      7404      7435
      7406      7405      7407      7408      7406      7405      7407      7409
      7406      7405      7407      7410      7407      7405      7404      7435
      7407      7410      7412      7413      7407      7410      7412      7414
      7407      7410      7412      7422      7407      7410      7433      7430
      7407      7410      7433      7434      7407      7410      7433      7435
      7408      7407      7410      7411      7408      7407      7410      7412
      7408      7407      7410      7433      7409      7407      7410      7411
      7409      7407      7410      7412      7409      7407      7410      7433
      7410      7412      7414      7415      7410      7412      7414      7416
      7410      7412      7414      7417      7410      7412      7422      7420
      7410      7412      7422      7423      7410      7412      7422      7427
      7410      7433      7430      7427      7410      7433      7430      7431
      7410      7433      7430      7432      7410      7433      7435      7436
      7410      7433      7435      7440      7411      7410      7412      7413
      7411      7410      7412      7414      7411      7410      7412      7422
      7411      7410      7433      7430      7411      7410      7433      7434
      7411      7410      7433      7435      7412      7410      7433      7430
      7412      7410      7433      7434      7412      7410      7433      7435
      7412      7414      7417      7418      7412      7414      7417      7419
      7412      7414      7417      7420      7412      7422      7420      7417
      7412      7422      7420      7421      7412      7422      7420      7446
      7412      7422      7423      7424      7412      7422      7423      7425
      7412      7422      7423      7426      7412      7422      7427      7428
      7412      7422      7427      7429      7412      7422      7427      7430
      7413      7412      7410      7433      7413      7412      7414      7415
      7413      7412      7414      7416      7413      7412      7414      7417
      7413      7412      7422      7420      7413      7412      7422      7423
      7413      7412      7422      7427      7414      7412      7410      7433
      7414      7412      7422      7420      7414      7412      7422      7423
      7414      7412      7422      7427      7414      7417      7420      7421
      7414      7417      7420      7422      7414      7417      7420      7446
      7415      7414      7412      7422      7415      7414      7417      7418
      7415      7414      7417      7419      7415      7414      7417      7420
      7416      7414      7412      7422      7416      7414      7417      7418
      7416      7414      7417      7419      7416      7414      7417      7420
      7417      7414      7412      7422      7417      7420      7422      7423
      7417      7420      7422      7427      7417      7420      7446      7447
      7417      7420      7446      7448      7417      7420      7446      7452
      7418      7417      7420      7421      7418      7417      7420      7422
      7418      7417      7420      7446      7419      7417      7420      7421
      7419      7417      7420      7422      7419      7417      7420      7446
      7420      7422      7423      7424      7420      7422      7423      7425
      7420      7422      7423      7426      7420      7422      7427      7428
      7420      7422      7427      7429      7420      7422      7427      7430
      7420      7446      7448      7449      7420      7446      7448      7450
      7420      7446      7448      7451      7420      7446      7452      7453
      7420      7446      7452      7454      7420      7446      7452      7455
      7421      7420      7422      7423      7421      7420      7422      7427
      7421      7420      7446      7447      7421      7420      7446      7448
      7421      7420      7446      7452      7422      7412      7410      7433
      7422      7420      7446      7447      7422      7420      7446      7448
      7422      7420      7446      7452      7422      7427      7430      7431
      7422      7427      7430      7432      7422      7427      7430      7433
      7423      7422      7420      7446      7423      7422      7427      7428
      7423      7422      7427      7429      7423      7422      7427      7430
      7424      7423      7422      7427      7425      7423      7422      7427
      7426      7423      7422      7427      7427      7422      7420      7446
      7427      7430      7433      7434      7427      7430      7433      7435
      7428      7427      7430      7431      7428      7427      7430      7432
      7428      7427      7430      7433      7429      7427      7430      7431
      7429      7427      7430      7432      7429      7427      7430      7433
      7430      7433      7435      7436      7430      7433      7435      7440
      7431      7430      7433      7434      7431      7430      7433      7435
      7432      7430      7433      7434      7432      7430      7433      7435
      7433      7435      7436      7437      7433      7435      7436      7438
      7433      7435      7436      7439      7433      7435      7440      7441
      7433      7435      7440      7442      7433      7435      7440      7443
      7434      7433      7435      7436      7434      7433      7435      7440
      7435      7440      7443      7444      7435      7440      7443      7445
      7436      7435      7440      7441      7436      7435      7440      7442
      7436      7435      7440      7443      7437      7436      7435      7440
      7438      7436      7435      7440      7439      7436      7435      7440
      7441      7440      7443      7444      7441      7440      7443      7445
      7442      7440      7443      7444      7442      7440      7443      7445
      7446      7452      7455      7456      7446      7452      7455      7457
      7446      7452      7455      7458      7447      7446      7448      7449
      7447      7446      7448      7450      7447      7446      7448      7451
      7447      7446      7452      7453      7447      7446      7452      7454
      7447      7446      7452      7455      7448      7446      7452      7453
      7448      7446      7452      7454      7448      7446      7452      7455
      7449      7448      7446      7452      7450      7448      7446      7452
      7451      7448      7446      7452      7452      7455      7458      7459
      7452      7455      7458      7460      7452      7455      7458      7461
      7453      7452      7455      7456      7453      7452      7455      7457
      7453      7452      7455      7458      7454      7452      7455      7456
      7454      7452      7455      7457      7454      7452      7455      7458
      7455      7458      7461      7462      7455      7458      7461      7463
      7455      7458      7461      7467      7456      7455      7458      7459
      7456      7455      7458      7460      7456      7455      7458      7461
      7457      7455      7458      7459      7457      7455      7458      7460
      7457      7455      7458      7461      7458      7461      7463      7464
      7458      7461      7463      7465      7458      7461      7463      7466
      7458      7461      7467      7468      7458      7461      7467      7469
      7458      7461      7467      7470      7459      7458      7461      7462
      7459      7458      7461      7463      7459      7458      7461      7467
      7460      7458      7461      7462      7460      7458      7461      7463
      7460      7458      7461      7467      7462      7461      7463      7464
      7462      7461      7463      7465      7462      7461      7463      7466
      7462      7461      7467      7468      7462      7461      7467      7469
      7462      7461      7467      7470      7463      7461      7467      7468
      7463      7461      7467      7469      7463      7461      7467      7470
      7464      7463      7461      7467      7465      7463      7461      7467
      7466      7463      7461      7467      7471      7484      7487      7488
      7471      7484      7487      7489      7471      7484      7487      7494
      7472      7471      7476      7477      7472      7471      7476      7478
      7472      7471      7476      7479      7472      7471      7480      7481
      7472      7471      7480      7482      7472      7471      7480      7483
      7472      7471      7484      7485      7472      7471      7484      7486
      7472      7471      7484      7487      7473      7472      7471      7476
      7473      7472      7471      7480      7473      7472      7471      7484
      7474      7472      7471      7476      7474      7472      7471      7480
      7474      7472      7471      7484      7475      7472      7471      7476
      7475      7472      7471      7480      7475      7472      7471      7484
      7476      7471      7480      7481      7476      7471      7480      7482
      7476      7471      7480      7483      7476      7471      7484      7485
      7476      7471      7484      7486      7476      7471      7484      7487
      7477      7476      7471      7480      7477      7476      7471      7484
      7478      7476      7471      7480      7478      7476      7471      7484
      7479      7476      7471      7480      7479      7476      7471      7484
      7480      7471      7484      7485      7480      7471      7484      7486
      7480      7471      7484      7487      7481      7480      7471      7484
      7482      7480      7471      7484      7483      7480      7471      7484
      7484      7487      7494      7490      7485      7484      7487      7488
      7485      7484      7487      7489      7485      7484      7487      7494
      7486      7484      7487      7488      7486      7484      7487      7489
      7486      7484      7487      7494      7487      7494      7490      7491
      7487      7494      7490      7492      7487      7494      7490      7493
      7488      7487      7494      7490      7489      7487      7494      7490
      7490      7493      7495      7496      7490      7493      7495      7497
      7490      7493      7495      7500      7491      7490      7493      7495
      7492      7490      7493      7495      7493      7495      7500      7498
      7493      7495      7500      7501      7493      7495      7500      7502
      7494      7490      7493      7495      7495      7500      7498      7499
      7495      7500      7498      7550      7495      7500      7502      7503
      7495      7500      7502      7504      7495      7500      7502      7506
      7496      7495      7500      7498      7496      7495      7500      7501
      7496      7495      7500      7502      7497      7495      7500      7498
      7497      7495      7500      7501      7497      7495      7500      7502
      7498      7500      7502      7503      7498      7500      7502      7504
      7498      7500      7502      7506      7498      7550      7552      7553
      7498      7550      7552      7554      7498      7550      7552      7555
      7499      7498      7500      7501      7499      7498      7500      7502
      7499      7498      7550      7551      7499      7498      7550      7552
      7500      7498      7550      7551      7500      7498      7550      7552
      7500      7502      7504      7505      7500      7502      7506      7507
      7500      7502      7506      7508      7501      7500      7498      7550
      7501      7500      7502      7503      7501      7500      7502      7504
      7501      7500      7502      7506      7502      7500      7498      7550
      7502      7506      7508      7509      7502      7506      7508      7510
      7503      7502      7504      7505      7503      7502      7506      7507
      7503      7502      7506      7508      7504      7502      7506      7507
      7504      7502      7506      7508      7505      7504      7502      7506
      7506      7508      7510      7511      7506      7508      7510      7512
      7506      7508      7510      7513      7507      7506      7508      7509
      7507      7506      7508      7510      7508      7510      7513      7514
      7508      7510      7513      7515      7508      7510      7513      7516
      7509      7508      7510      7511      7509      7508      7510      7512
      7509      7508      7510      7513      7510      7513      7516      7517
      7510      7513      7516      7518      7510      7513      7516      7519
      7511      7510      7513      7514      7511      7510      7513      7515
      7511      7510      7513      7516      7512      7510      7513      7514
      7512      7510      7513      7515      7512      7510      7513      7516
      7513      7516      7519      7520      7513      7516      7519      7521
      7513      7516      7519      7522      7514      7513      7516      7517
      7514      7513      7516      7518      7514      7513      7516      7519
      7515      7513      7516      7517      7515      7513      7516      7518
      7515      7513      7516      7519      7516      7519      7522      7523
      7516      7519      7522      7524      7516      7519      7522      7525
      7517      7516      7519      7520      7517      7516      7519      7521
      7517      7516      7519      7522      7518      7516      7519      7520
      7518      7516      7519      7521      7518      7516      7519      7522
      7519      7522      7525      7526      7519      7522      7525      7527
      7519      7522      7525      7528      7520      7519      7522      7523
      7520      7519      7522      7524      7520      7519      7522      7525
      7521      7519      7522      7523      7521      7519      7522      7524
      7521      7519      7522      7525      7522      7525      7528      7529
      7522      7525      7528      7530      7522      7525      7528      7531
      7523      7522      7525      7526      7523      7522      7525      7527
      7523      7522      7525      7528      7524      7522      7525      7526
      7524      7522      7525      7527      7524      7522      7525      7528
      7525      7528      7531      7532      7525      7528      7531      7533
      7525      7528      7531      7534      7526      7525      7528      7529
      7526      7525      7528      7530      7526      7525      7528      7531
      7527      7525      7528      7529      7527      7525      7528      7530
      7527      7525      7528      7531      7528      7531      7534      7535
      7528      7531      7534      7536      7528      7531      7534      7537
      7529      7528      7531      7532      7529      7528      7531      7533
      7529      7528      7531      7534      7530      7528      7531      7532
      7530      7528      7531      7533      7530      7528      7531      7534
      7531      7534      7537      7538      7531      7534      7537      7539
      7531      7534      7537      7540      7532      7531      7534      7535
      7532      7531      7534      7536      7532      7531      7534      7537
      7533      7531      7534      7535      7533      7531      7534      7536
      7533      7531      7534      7537      7534      7537      7540      7541
      7534      7537      7540      7542      7534      7537      7540      7543
      7535      7534      7537      7538      7535      7534      7537      7539
      7535      7534      7537      7540      7536      7534      7537      7538
      7536      7534      7537      7539      7536      7534      7537      7540
      7537      7540      7543      7544      7537      7540      7543      7545
      7537      7540      7543      7546      7538      7537      7540      7541
      7538      7537      7540      7542      7538      7537      7540      7543
      7539      7537      7540      7541      7539      7537      7540      7542
      7539      7537      7540      7543      7540      7543      7546      7547
      7540      7543      7546      7548      7540      7543      7546      7549
      7541      7540      7543      7544      7541      7540      7543      7545
      7541      7540      7543      7546      7542      7540      7543      7544
      7542      7540      7543      7545      7542      7540      7543      7546
      7544      7543      7546      7547      7544      7543      7546      7548
      7544      7543      7546      7549      7545      7543      7546      7547
      7545      7543      7546      7548      7545      7543      7546      7549
      7550      7552      7555      7556      7550      7552      7555      7557
      7550      7552      7555      7558      7551      7550      7552      7553
      7551      7550      7552      7554      7551      7550      7552      7555
      7552      7555      7558      7559      7552      7555      7558      7560
      7552      7555      7558      7561      7553      7552      7555      7556
      7553      7552      7555      7557      7553      7552      7555      7558
      7554      7552      7555      7556      7554      7552      7555      7557
      7554      7552      7555      7558      7555      7558      7561      7562
      7555      7558      7561      7563      7555      7558      7561      7564
      7556      7555      7558      7559      7556      7555      7558      7560
      7556      7555      7558      7561      7557      7555      7558      7559
      7557      7555      7558      7560      7557      7555      7558      7561
      7558      7561      7564      7565      7558      7561      7564      7566
      7558      7561      7564      7567      7559      7558      7561      7562
      7559      7558      7561      7563      7559      7558      7561      7564
      7560      7558      7561      7562      7560      7558      7561      7563
      7560      7558      7561      7564      7561      7564      7567      7568
      7561      7564      7567      7569      7561      7564      7567      7570
      7562      7561      7564      7565      7562      7561      7564      7566
      7562      7561      7564      7567      7563      7561      7564      7565
      7563      7561      7564      7566      7563      7561      7564      7567
      7564      7567      7570      7571      7564      7567      7570      7572
      7564      7567      7570      7573      7565      7564      7567      7568
      7565      7564      7567      7569      7565      7564      7567      7570
      7566      7564      7567      7568      7566      7564      7567      7569
      7566      7564      7567      7570      7567      7570      7573      7574
      7567      7570      7573      7575      7568      7567      7570      7571
      7568      7567      7570      7572      7568      7567      7570      7573
      7569      7567      7570      7571      7569      7567      7570      7572
      7569      7567      7570      7573      7570      7573      7575      7576
      7570      7573      7575      7577      7571      7570      7573      7574
      7571      7570      7573      7575      7572      7570      7573      7574
      7572      7570      7573      7575      7573      7575      7577      7578
      7573      7575      7577      7579      7573      7575      7577      7580
      7574      7573      7575      7576      7574      7573      7575      7577
      7575      7577      7580      7581      7575      7577      7580      7582
      7575      7577      7580      7583      7576      7575      7577      7578
      7576      7575      7577      7579      7576      7575      7577      7580
      7577      7580      7583      7584      7577      7580      7583      7585
      7577      7580      7583      7586      7578      7577      7580      7581
      7578      7577      7580      7582      7578      7577      7580      7583
      7579      7577      7580      7581      7579      7577      7580      7582
      7579      7577      7580      7583      7580      7583      7586      7587
      7580      7583      7586      7588      7580      7583      7586      7589
      7581      7580      7583      7584      7581      7580      7583      7585
      7581      7580      7583      7586      7582      7580      7583      7584
      7582      7580      7583      7585      7582      7580      7583      7586
      7583      7586      7589      7590      7583      7586      7589      7591
      7583      7586      7589      7592      7584      7583      7586      7587
      7584      7583      7586      7588      7584      7583      7586      7589
      7585      7583      7586      7587      7585      7583      7586      7588
      7585      7583      7586      7589      7586      7589      7592      7593
      7586      7589      7592      7594      7586      7589      7592      7595
      7587      7586      7589      7590      7587      7586      7589      7591
      7587      7586      7589      7592      7588      7586      7589      7590
      7588      7586      7589      7591      7588      7586      7589      7592
      7589      7592      7595      7596      7589      7592      7595      7597
      7589      7592      7595      7598      7590      7589      7592      7593
      7590      7589      7592      7594      7590      7589      7592      7595
      7591      7589      7592      7593      7591      7589      7592      7594
      7591      7589      7592      7595      7592      7595      7598      7599
      7592      7595      7598      7600      7592      7595      7598      7601
      7593      7592      7595      7596      7593      7592      7595      7597
      7593      7592      7595      7598      7594      7592      7595      7596
      7594      7592      7595      7597      7594      7592      7595      7598
      7596      7595      7598      7599      7596      7595      7598      7600
      7596      7595      7598      7601      7597      7595      7598      7599
      7597      7595      7598      7600      7597      7595      7598      7601
      7602      7606      7609      7610      7602      7606      7609      7640
      7602      7648      7645      7640      7602      7648      7645      7646
      7602      7648      7645      7647      7603      7602      7604      7605
      7603      7602      7606      7607      7603      7602      7606      7608
      7603      7602      7606      7609      7603      7602      7648      7645
      7603      7602      7648      7649      7603      7602      7648      7650
      7604      7602      7606      7607      7604      7602      7606      7608
      7604      7602      7606      7609      7604      7602      7648      7645
      7604      7602      7648      7649      7604      7602      7648      7650
      7605      7604      7602      7606      7605      7604      7602      7648
      7606      7602      7648      7645      7606      7602      7648      7649
      7606      7602      7648      7650      7606      7609      7610      7611
      7606      7609      7610      7612      7606      7609      7640      7638
      7606      7609      7640      7641      7606      7609      7640      7645
      7607      7606      7602      7648      7607      7606      7609      7610
      7607      7606      7609      7640      7608      7606      7602      7648
      7608      7606      7609      7610      7608      7606      7609      7640
      7609      7606      7602      7648      7609      7610      7612      7613
      7609      7610      7612      7614      7609      7610      7612      7615
      7609      7640      7638      7615      7609      7640      7638      7635
      7609      7640      7638      7639      7609      7640      7641      7642
      7609      7640      7641      7643      7609      7640      7641      7644
      7609      7640      7645      7646      7609      7640      7645      7647
      7609      7640      7645      7648      7610      7609      7640      7638
      7610      7609      7640      7641      7610      7609      7640      7645
      7610      7612      7615      7616      7610      7612      7615      7617
      7610      7612      7615      7638      7611      7610      7609      7640
      7611      7610      7612      7613      7611      7610      7612      7614
      7611      7610      7612      7615      7612      7610      7609      7640
      7612      7615      7617      7618      7612      7615      7617      7619
      7612      7615      7617      7627      7612      7615      7638      7635
      7612      7615      7638      7639      7612      7615      7638      7640
      7613      7612      7615      7616      7613      7612      7615      7617
      7613      7612      7615      7638      7614      7612      7615      7616
      7614      7612      7615      7617      7614      7612      7615      7638
      7615      7617      7619      7620      7615      7617      7619      7621
      7615      7617      7619      7622      7615      7617      7627      7625
      7615      7617      7627      7628      7615      7617      7627      7632
      7615      7638      7635      7632      7615      7638      7635      7636
      7615      7638      7635      7637      7615      7638      7640      7641
      7615      7638      7640      7645      7616      7615      7617      7618
      7616      7615      7617      7619      7616      7615      7617      7627
      7616      7615      7638      7635      7616      7615      7638      7639
      7616      7615      7638      7640      7617      7615      7638      7635
      7617      7615      7638      7639      7617      7615      7638      7640
      7617      7619      7622      7623      7617      7619      7622      7624
      7617      7619      7622      7625      7617      7627      7625      7622
      7617      7627      7625      7626      7617      7627      7625      7651
      7617      7627      7628      7629      7617      7627      7628      7630
      7617      7627      7628      7631      7617      7627      7632      7633
      7617      7627      7632      7634      7617      7627      7632      7635
      7618      7617      7615      7638      7618      7617      7619      7620
      7618      7617      7619      7621      7618      7617      7619      7622
      7618      7617      7627      7625      7618      7617      7627      7628
      7618      7617      7627      7632      7619      7617      7615      7638
      7619      7617      7627      7625      7619      7617      7627      7628
      7619      7617      7627      7632      7619      7622      7625      7626
      7619      7622      7625      7627      7619      7622      7625      7651
      7620      7619      7617      7627      7620      7619      7622      7623
      7620      7619      7622      7624      7620      7619      7622      7625
      7621      7619      7617      7627      7621      7619      7622      7623
      7621      7619      7622      7624      7621      7619      7622      7625
      7622      7619      7617      7627      7622      7625      7627      7628
      7622      7625      7627      7632      7622      7625      7651      7652
      7622      7625      7651      7653      7622      7625      7651      7657
      7623      7622      7625      7626      7623      7622      7625      7627
      7623      7622      7625      7651      7624      7622      7625      7626
      7624      7622      7625      7627      7624      7622      7625      7651
      7625      7627      7628      7629      7625      7627      7628      7630
      7625      7627      7628      7631      7625      7627      7632      7633
      7625      7627      7632      7634      7625      7627      7632      7635
      7625      7651      7653      7654      7625      7651      7653      7655
      7625      7651      7653      7656      7625      7651      7657      7658
      7625      7651      7657      7659      7625      7651      7657      7660
      7626      7625      7627      7628      7626      7625      7627      7632
      7626      7625      7651      7652      7626      7625      7651      7653
      7626      7625      7651      7657      7627      7617      7615      7638
      7627      7625      7651      7652      7627      7625      7651      7653
      7627      7625      7651      7657      7627      7632      7635      7636
      7627      7632      7635      7637      7627      7632      7635      7638
      7628      7627      7625      7651      7628      7627      7632      7633
      7628      7627      7632      7634      7628      7627      7632      7635
      7629      7628      7627      7632      7630      7628      7627      7632
      7631      7628      7627      7632      7632      7627      7625      7651
      7632      7635      7638      7639      7632      7635      7638      7640
      7633      7632      7635      7636      7633      7632      7635      7637
      7633      7632      7635      7638      7634      7632      7635      7636
      7634      7632      7635      7637      7634      7632      7635      7638
      7635      7638      7640      7641      7635      7638      7640      7645
      7636      7635      7638      7639      7636      7635      7638      7640
      7637      7635      7638      7639      7637      7635      7638      7640
      7638      7640      7641      7642      7638      7640      7641      7643
      7638      7640      7641      7644      7638      7640      7645      7646
      7638      7640      7645      7647      7638      7640      7645      7648
      7639      7638      7640      7641      7639      7638      7640      7645
      7640      7645      7648      7649      7640      7645      7648      7650
      7641      7640      7645      7646      7641      7640      7645      7647
      7641      7640      7645      7648      7642      7641      7640      7645
      7643      7641      7640      7645      7644      7641      7640      7645
      7646      7645      7648      7649      7646      7645      7648      7650
      7647      7645      7648      7649      7647      7645      7648      7650
      7651      7657      7660      7661      7651      7657      7660      7662
      7651      7657      7660      7663      7652      7651      7653      7654
      7652      7651      7653      7655      7652      7651      7653      7656
      7652      7651      7657      7658      7652      7651      7657      7659
      7652      7651      7657      7660      7653      7651      7657      7658
      7653      7651      7657      7659      7653      7651      7657      7660
      7654      7653      7651      7657      7655      7653      7651      7657
      7656      7653      7651      7657      7657      7660      7663      7664
      7657      7660      7663      7665      7657      7660      7663      7666
      7658      7657      7660      7661      7658      7657      7660      7662
      7658      7657      7660      7663      7659      7657      7660      7661
      7659      7657      7660      7662      7659      7657      7660      7663
      7660      7663      7666      7667      7660      7663      7666      7668
      7660      7663      7666      7672      7661      7660      7663      7664
      7661      7660      7663      7665      7661      7660      7663      7666
      7662      7660      7663      7664      7662      7660      7663      7665
      7662      7660      7663      7666      7663      7666      7668      7669
      7663      7666      7668      7670      7663      7666      7668      7671
      7663      7666      7672      7673      7663      7666      7672      7674
      7663      7666      7672      7675      7664      7663      7666      7667
      7664      7663      7666      7668      7664      7663      7666      7672
      7665      7663      7666      7667      7665      7663      7666      7668
      7665      7663      7666      7672      7667      7666      7668      7669
      7667      7666      7668      7670      7667      7666      7668      7671
      7667      7666      7672      7673      7667      7666      7672      7674
      7667      7666      7672      7675      7668      7666      7672      7673
      7668      7666      7672      7674      7668      7666      7672      7675
      7669      7668      7666      7672      7670      7668      7666      7672
      7671      7668      7666      7672      7676      7677      7692      7693
      7676      7677      7692      7694      7676      7677      7692      7698
      7677      7676      7680      7681      7677      7676      7680      7682
      7677      7676      7680      7683      7677      7676      7684      7685
      7677      7676      7684      7686      7677      7676      7684      7687
      7677      7676      7688      7689      7677      7676      7688      7690
      7677      7676      7688      7691      7677      7692      7698      7695
      7678      7677      7676      7680      7678      7677      7676      7684
      7678      7677      7676      7688      7678      7677      7692      7693
      7678      7677      7692      7694      7678      7677      7692      7698
      7679      7677      7676      7680      7679      7677      7676      7684
      7679      7677      7676      7688      7679      7677      7692      7693
      7679      7677      7692      7694      7679      7677      7692      7698
      7680      7676      7677      7692      7680      7676      7684      7685
      7680      7676      7684      7686      7680      7676      7684      7687
      7680      7676      7688      7689      7680      7676      7688      7690
      7680      7676      7688      7691      7681      7680      7676      7684
      7681      7680      7676      7688      7682      7680      7676      7684
      7682      7680      7676      7688      7683      7680      7676      7684
      7683      7680      7676      7688      7684      7676      7677      7692
      7684      7676      7688      7689      7684      7676      7688      7690
      7684      7676      7688      7691      7685      7684      7676      7688
      7686      7684      7676      7688      7687      7684      7676      7688
      7688      7676      7677      7692      7692      7698      7695      7696
      7692      7698      7695      7697      7692      7698      7695      7699
      7693      7692      7698      7695      7694      7692      7698      7695
      7695      7699      7700      7701      7695      7699      7700      7702
      7695      7699      7700      7703      7696      7695      7699      7700
      7697      7695      7699      7700      7698      7695      7699      7700
      7699      7700      7703      7704      7699      7700      7703      7705
      7699      7700      7703      7711      7700      7703      7705      7706
      7700      7703      7711      7712      7700      7703      7711      7713
      7700      7703      7711      7714      7701      7700      7703      7704
      7701      7700      7703      7705      7701      7700      7703      7711
      7702      7700      7703      7704      7702      7700      7703      7705
      7702      7700      7703      7711      7703      7705      7706      7707
      7703      7705      7706      7708      7703      7711      7714      7715
      7704      7703      7705      7706      7704      7703      7711      7712
      7704      7703      7711      7713      7704      7703      7711      7714
      7705      7703      7711      7712      7705      7703      7711      7713
      7705      7703      7711      7714      7705      7706      7708      7709
      7705      7706      7708      7710      7705      7706      7708      7720
      7706      7705      7703      7711      7706      7708      7720      7721
      7706      7708      7720      7722      7706      7708      7720      7723
      7707      7706      7708      7709      7707      7706      7708      7710
      7707      7706      7708      7720      7708      7720      7723      7724
      7708      7720      7723      7725      7708      7720      7723      7726
      7709      7708      7720      7721      7709      7708      7720      7722
      7709      7708      7720      7723      7710      7708      7720      7721
      7710      7708      7720      7722      7710      7708      7720      7723
      7711      7714      7715      7716      7711      7714      7715      7717
      7712      7711      7714      7715      7713      7711      7714      7715
      7714      7715      7717      7718      7714      7715      7717      7719
      7714      7715      7717      7767      7715      7717      7767      7768
      7715      7717      7767      7769      7715      7717      7767      7770
      7716      7715      7717      7718      7716      7715      7717      7719
      7716      7715      7717      7767      7717      7767      7770      7771
      7717      7767      7770      7772      7717      7767      7770      7773
      7718      7717      7767      7768      7718      7717      7767      7769
      7718      7717      7767      7770      7719      7717      7767      7768
      7719      7717      7767      7769      7719      7717      7767      7770
      7720      7723      7726      7727      7720      7723      7726      7728
      7721      7720      7723      7724      7721      7720      7723      7725
      7721      7720      7723      7726      7722      7720      7723      7724
      7722      7720      7723      7725      7722      7720      7723      7726
      7723      7726      7728      7729      7723      7726      7728      7730
      7724      7723      7726      7727      7724      7723      7726      7728
      7725      7723      7726      7727      7725      7723      7726      7728
      7726      7728      7730      7731      7726      7728      7730      7732
      7726      7728      7730      7733      7727      7726      7728      7729
      7727      7726      7728      7730      7728      7730      7733      7734
      7728      7730      7733      7735      7729      7728      7730      7731
      7729      7728      7730      7732      7729      7728      7730      7733
      7730      7733      7735      7736      7730      7733      7735      7737
      7731      7730      7733      7734      7731      7730      7733      7735
      7732      7730      7733      7734      7732      7730      7733      7735
      7733      7735      7737      7738      7733      7735      7737      7739
      7733      7735      7737      7740      7734      7733      7735      7736
      7734      7733      7735      7737      7735      7737      7740      7741
      7735      7737      7740      7742      7736      7735      7737      7738
      7736      7735      7737      7739      7736      7735      7737      7740
      7737      7740      7742      7743      7737      7740      7742      7744
      7738      7737      7740      7741      7738      7737      7740      7742
      7739      7737      7740      7741      7739      7737      7740      7742
      7740      7742      7744      7745      7740      7742      7744      7746
      7740      7742      7744      7747      7741      7740      7742      7743
      7741      7740      7742      7744      7742      7744      7747      7748
      7742      7744      7747      7749      7743      7742      7744      7745
      7743      7742      7744      7746      7743      7742      7744      7747
      7744      7747      7749      7750      7744      7747      7749      7751
      7745      7744      7747      7748      7745      7744      7747      7749
      7746      7744      7747      7748      7746      7744      7747      7749
      7747      7749      7751      7752      7747      7749      7751      7753
      7747      7749      7751      7754      7748      7747      7749      7750
      7748      7747      7749      7751      7749      7751      7754      7755
      7749      7751      7754      7756      7749      7751      7754      7757
      7750      7749      7751      7752      7750      7749      7751      7753
      7750      7749      7751      7754      7751      7754      7757      7758
      7751      7754      7757      7759      7751      7754      7757      7760
      7752      7751      7754      7755      7752      7751      7754      7756
      7752      7751      7754      7757      7753      7751      7754      7755
      7753      7751      7754      7756      7753      7751      7754      7757
      7754      7757      7760      7761      7754      7757      7760      7762
      7754      7757      7760      7763      7755      7754      7757      7758
      7755      7754      7757      7759      7755      7754      7757      7760
      7756      7754      7757      7758      7756      7754      7757      7759
      7756      7754      7757      7760      7757      7760      7763      7764
      7757      7760      7763      7765      7757      7760      7763      7766
      7758      7757      7760      7761      7758      7757      7760      7762
      7758      7757      7760      7763      7759      7757      7760      7761
      7759      7757      7760      7762      7759      7757      7760      7763
      7761      7760      7763      7764      7761      7760      7763      7765
      7761      7760      7763      7766      7762      7760      7763      7764
      7762      7760      7763      7765      7762      7760      7763      7766
      7767      7770      7773      7774      7767      7770      7773      7775
      7767      7770      7773      7776      7768      7767      7770      7771
      7768      7767      7770      7772      7768      7767      7770      7773
      7769      7767      7770      7771      7769      7767      7770      7772
      7769      7767      7770      7773      7770      7773      7776      7777
      7770      7773      7776      7778      7770      7773      7776      7779
      7771      7770      7773      7774      7771      7770      7773      7775
      7771      7770      7773      7776      7772      7770      7773      7774
      7772      7770      7773      7775      7772      7770      7773      7776
      7773      7776      7779      7780      7773      7776      7779      7781
      7773      7776      7779      7782      7774      7773      7776      7777
      7774      7773      7776      7778      7774      7773      7776      7779
      7775      7773      7776      7777      7775      7773      7776      7778
      7775      7773      7776      7779      7776      7779      7782      7783
      7776      7779      7782      7784      7776      7779      7782      7785
      7777      7776      7779      7780      7777      7776      7779      7781
      7777      7776      7779      7782      7778      7776      7779      7780
      7778      7776      7779      7781      7778      7776      7779      7782
      7779      7782      7785      7786      7779      7782      7785      7787
      7779      7782      7785      7788      7780      7779      7782      7783
      7780      7779      7782      7784      7780      7779      7782      7785
      7781      7779      7782      7783      7781      7779      7782      7784
      7781      7779      7782      7785      7782      7785      7788      7789
      7782      7785      7788      7790      7782      7785      7788      7791
      7783      7782      7785      7786      7783      7782      7785      7787
      7783      7782      7785      7788      7784      7782      7785      7786
      7784      7782      7785      7787      7784      7782      7785      7788
      7785      7788      7791      7792      7785      7788      7791      7793
      7785      7788      7791      7794      7786      7785      7788      7789
      7786      7785      7788      7790      7786      7785      7788      7791
      7787      7785      7788      7789      7787      7785      7788      7790
      7787      7785      7788      7791      7788      7791      7794      7795
      7788      7791      7794      7796      7788      7791      7794      7797
      7789      7788      7791      7792      7789      7788      7791      7793
      7789      7788      7791      7794      7790      7788      7791      7792
      7790      7788      7791      7793      7790      7788      7791      7794
      7791      7794      7797      7798      7791      7794      7797      7799
      7791      7794      7797      7800      7792      7791      7794      7795
      7792      7791      7794      7796      7792      7791      7794      7797
      7793      7791      7794      7795      7793      7791      7794      7796
      7793      7791      7794      7797      7794      7797      7800      7801
      7794      7797      7800      7802      7794      7797      7800      7803
      7795      7794      7797      7798      7795      7794      7797      7799
      7795      7794      7797      7800      7796      7794      7797      7798
      7796      7794      7797      7799      7796      7794      7797      7800
      7797      7800      7803      7804      7797      7800      7803      7805
      7797      7800      7803      7806      7798      7797      7800      7801
      7798      7797      7800      7802      7798      7797      7800      7803
      7799      7797      7800      7801      7799      7797      7800      7802
      7799      7797      7800      7803      7800      7803      7806      7807
      7800      7803      7806      7808      7800      7803      7806      7809
      7801      7800      7803      7804      7801      7800      7803      7805
      7801      7800      7803      7806      7802      7800      7803      7804
      7802      7800      7803      7805      7802      7800      7803      7806
      7803      7806      7809      7810      7803      7806      7809      7811
      7803      7806      7809      7812      7804      7803      7806      7807
      7804      7803      7806      7808      7804      7803      7806      7809
      7805      7803      7806      7807      7805      7803      7806      7808
      7805      7803      7806      7809      7806      7809      7812      7813
      7806      7809      7812      7814      7806      7809      7812      7815
      7807      7806      7809      7810      7807      7806      7809      7811
      7807      7806      7809      7812      7808      7806      7809      7810
      7808      7806      7809      7811      7808      7806      7809      7812
      7810      7809      7812      7813      7810      7809      7812      7814
      7810      7809      7812      7815      7811      7809      7812      7813
      7811      7809      7812      7814      7811      7809      7812      7815
      7816      7820      7823      7824      7816      7820      7823      7825
      7816      7820      7823      7829      7817      7816      7820      7821
      7817      7816      7820      7822      7817      7816      7820      7823
      7818      7816      7820      7821      7818      7816      7820      7822
      7818      7816      7820      7823      7819      7816      7820      7821
      7819      7816      7820      7822      7819      7816      7820      7823
      7820      7823      7829      7826      7821      7820      7823      7824
      7821      7820      7823      7825      7821      7820      7823      7829
      7822      7820      7823      7824      7822      7820      7823      7825
      7822      7820      7823      7829      7823      7829      7826      7827
      7823      7829      7826      7828      7823      7829      7826      7830
      7824      7823      7829      7826      7825      7823      7829      7826
      7826      7830      7831      7832      7826      7830      7831      7833
      7826      7830      7831      7834      7827      7826      7830      7831
      7828      7826      7830      7831      7829      7826      7830      7831
      7830      7831      7834      7835      7830      7831      7834      7836
      7830      7831      7834      7842      7831      7834      7836      7837
      7831      7834      7842      7843      7831      7834      7842      7844
      7831      7834      7842      7845      7832      7831      7834      7835
      7832      7831      7834      7836      7832      7831      7834      7842
      7833      7831      7834      7835      7833      7831      7834      7836
      7833      7831      7834      7842      7834      7836      7837      7838
      7834      7836      7837      7839      7834      7842      7845      7846
      7835      7834      7836      7837      7835      7834      7842      7843
      7835      7834      7842      7844      7835      7834      7842      7845
      7836      7834      7842      7843      7836      7834      7842      7844
      7836      7834      7842      7845      7836      7837      7839      7840
      7836      7837      7839      7841      7836      7837      7839      7851
      7837      7836      7834      7842      7837      7839      7851      7852
      7837      7839      7851      7853      7837      7839      7851      7854
      7838      7837      7839      7840      7838      7837      7839      7841
      7838      7837      7839      7851      7839      7851      7854      7855
      7839      7851      7854      7856      7839      7851      7854      7857
      7840      7839      7851      7852      7840      7839      7851      7853
      7840      7839      7851      7854      7841      7839      7851      7852
      7841      7839      7851      7853      7841      7839      7851      7854
      7842      7845      7846      7847      7842      7845      7846      7848
      7843      7842      7845      7846      7844      7842      7845      7846
      7845      7846      7848      7849      7845      7846      7848      7850
      7845      7846      7848      7898      7846      7848      7898      7899
      7846      7848      7898      7900      7846      7848      7898      7901
      7847      7846      7848      7849      7847      7846      7848      7850
      7847      7846      7848      7898      7848      7898      7901      7902
      7848      7898      7901      7903      7848      7898      7901      7904
      7849      7848      7898      7899      7849      7848      7898      7900
      7849      7848      7898      7901      7850      7848      7898      7899
      7850      7848      7898      7900      7850      7848      7898      7901
      7851      7854      7857      7858      7851      7854      7857      7859
      7851      7854      7857      7860      7852      7851      7854      7855
      7852      7851      7854      7856      7852      7851      7854      7857
      7853      7851      7854      7855      7853      7851      7854      7856
      7853      7851      7854      7857      7854      7857      7860      7861
      7854      7857      7860      7862      7854      7857      7860      7863
      7855      7854      7857      7858      7855      7854      7857      7859
      7855      7854      7857      7860      7856      7854      7857      7858
      7856      7854      7857      7859      7856      7854      7857      7860
      7857      7860      7863      7864      7857      7860      7863      7865
      7857      7860      7863      7866      7858      7857      7860      7861
      7858      7857      7860      7862      7858      7857      7860      7863
      7859      7857      7860      7861      7859      7857      7860      7862
      7859      7857      7860      7863      7860      7863      7866      7867
      7860      7863      7866      7868      7860      7863      7866      7869
      7861      7860      7863      7864      7861      7860      7863      7865
      7861      7860      7863      7866      7862      7860      7863      7864
      7862      7860      7863      7865      7862      7860      7863      7866
      7863      7866      7869      7870      7863      7866      7869      7871
      7864      7863      7866      7867      7864      7863      7866      7868
      7864      7863      7866      7869      7865      7863      7866      7867
      7865      7863      7866      7868      7865      7863      7866      7869
      7866      7869      7871      7872      7866      7869      7871      7873
      7867      7866      7869      7870      7867      7866      7869      7871
      7868      7866      7869      7870      7868      7866      7869      7871
      7869      7871      7873      7874      7869      7871      7873      7875
      7869      7871      7873      7876      7870      7869      7871      7872
      7870      7869      7871      7873      7871      7873      7876      7877
      7871      7873      7876      7878      7871      7873      7876      7879
      7872      7871      7873      7874      7872      7871      7873      7875
      7872      7871      7873      7876      7873      7876      7879      7880
      7873      7876      7879      7881      7873      7876      7879      7882
      7874      7873      7876      7877      7874      7873      7876      7878
      7874      7873      7876      7879      7875      7873      7876      7877
      7875      7873      7876      7878      7875      7873      7876      7879
      7876      7879      7882      7883      7876      7879      7882      7884
      7876      7879      7882      7885      7877      7876      7879      7880
      7877      7876      7879      7881      7877      7876      7879      7882
      7878      7876      7879      7880      7878      7876      7879      7881
      7878      7876      7879      7882      7879      7882      7885      7886
      7879      7882      7885      7887      7879      7882      7885      7888
      7880      7879      7882      7883      7880      7879      7882      7884
      7880      7879      7882      7885      7881      7879      7882      7883
      7881      7879      7882      7884      7881      7879      7882      7885
      7882      7885      7888      7889      7882      7885      7888      7890
      7882      7885      7888      7891      7883      7882      7885      7886
      7883      7882      7885      7887      7883      7882      7885      7888
      7884      7882      7885      7886      7884      7882      7885      7887
      7884      7882      7885      7888      7885      7888      7891      7892
      7885      7888      7891      7893      7885      7888      7891      7894
      7886      7885      7888      7889      7886      7885      7888      7890
      7886      7885      7888      7891      7887      7885      7888      7889
      7887      7885      7888      7890      7887      7885      7888      7891
      7888      7891      7894      7895      7888      7891      7894      7896
      7888      7891      7894      7897      7889      7888      7891      7892
      7889      7888      7891      7893      7889      7888      7891      7894
      7890      7888      7891      7892      7890      7888      7891      7893
      7890      7888      7891      7894      7892      7891      7894      7895
      7892      7891      7894      7896      7892      7891      7894      7897
      7893      7891      7894      7895      7893      7891      7894      7896
      7893      7891      7894      7897      7898      7901      7904      7905
      7898      7901      7904      7906      7898      7901      7904      7907
      7899      7898      7901      7902      7899      7898      7901      7903
      7899      7898      7901      7904      7900      7898      7901      7902
      7900      7898      7901      7903      7900      7898      7901      7904
      7901      7904      7907      7908      7901      7904      7907      7909
      7901      7904      7907      7910      7902      7901      7904      7905
      7902      7901      7904      7906      7902      7901      7904      7907
      7903      7901      7904      7905      7903      7901      7904      7906
      7903      7901      7904      7907      7904      7907      7910      7911
      7904      7907      7910      7912      7904      7907      7910      7913
      7905      7904      7907      7908      7905      7904      7907      7909
      7905      7904      7907      7910      7906      7904      7907      7908
      7906      7904      7907      7909      7906      7904      7907      7910
      7907      7910      7913      7914      7907      7910      7913      7915
      7907      7910      7913      7916      7908      7907      7910      7911
      7908      7907      7910      7912      7908      7907      7910      7913
      7909      7907      7910      7911      7909      7907      7910      7912
      7909      7907      7910      7913      7910      7913      7916      7917
      7910      7913      7916      7918      7910      7913      7916      7919
      7911      7910      7913      7914      7911      7910      7913      7915
      7911      7910      7913      7916      7912      7910      7913      7914
      7912      7910      7913      7915      7912      7910      7913      7916
      7913      7916      7919      7920      7913      7916      7919      7921
      7913      7916      7919      7922      7914      7913      7916      7917
      7914      7913      7916      7918      7914      7913      7916      7919
      7915      7913      7916      7917      7915      7913      7916      7918
      7915      7913      7916      7919      7916      7919      7922      7923
      7916      7919      7922      7924      7916      7919      7922      7925
      7917      7916      7919      7920      7917      7916      7919      7921
      7917      7916      7919      7922      7918      7916      7919      7920
      7918      7916      7919      7921      7918      7916      7919      7922
      7919      7922      7925      7926      7919      7922      7925      7927
      7919      7922      7925      7928      7920      7919      7922      7923
      7920      7919      7922      7924      7920      7919      7922      7925
      7921      7919      7922      7923      7921      7919      7922      7924
      7921      7919      7922      7925      7922      7925      7928      7929
      7922      7925      7928      7930      7922      7925      7928      7931
      7923      7922      7925      7926      7923      7922      7925      7927
      7923      7922      7925      7928      7924      7922      7925      7926
      7924      7922      7925      7927      7924      7922      7925      7928
      7925      7928      7931      7932      7925      7928      7931      7933
      7925      7928      7931      7934      7926      7925      7928      7929
      7926      7925      7928      7930      7926      7925      7928      7931
      7927      7925      7928      7929      7927      7925      7928      7930
      7927      7925      7928      7931      7928      7931      7934      7935
      7928      7931      7934      7936      7928      7931      7934      7937
      7929      7928      7931      7932      7929      7928      7931      7933
      7929      7928      7931      7934      7930      7928      7931      7932
      7930      7928      7931      7933      7930      7928      7931      7934
      7931      7934      7937      7938      7931      7934      7937      7939
      7931      7934      7937      7940      7932      7931      7934      7935
      7932      7931      7934      7936      7932      7931      7934      7937
      7933      7931      7934      7935      7933      7931      7934      7936
      7933      7931      7934      7937      7934      7937      7940      7941
      7934      7937      7940      7942      7934      7937      7940      7943
      7935      7934      7937      7938      7935      7934      7937      7939
      7935      7934      7937      7940      7936      7934      7937      7938
      7936      7934      7937      7939      7936      7934      7937      7940
      7937      7940      7943      7944      7937      7940      7943      7945
      7937      7940      7943      7946      7938      7937      7940      7941
      7938      7937      7940      7942      7938      7937      7940      7943
      7939      7937      7940      7941      7939      7937      7940      7942
      7939      7937      7940      7943      7941      7940      7943      7944
      7941      7940      7943      7945      7941      7940      7943      7946
      7942      7940      7943      7944      7942      7940      7943      7945
      7942      7940      7943      7946      7947      7951      7954      7955
      7947      7951      7954      7956      7947      7951      7954      7960
      7948      7947      7951      7952      7948      7947      7951      7953
      7948      7947      7951      7954      7949      7947      7951      7952
      7949      7947      7951      7953      7949      7947      7951      7954
      7950      7947      7951      7952      7950      7947      7951      7953
      7950      7947      7951      7954      7951      7954      7960      7957
      7952      7951      7954      7955      7952      7951      7954      7956
      7952      7951      7954      7960      7953      7951      7954      7955
      7953      7951      7954      7956      7953      7951      7954      7960
      7954      7960      7957      7958      7954      7960      7957      7959
      7954      7960      7957      7961      7955      7954      7960      7957
      7956      7954      7960      7957      7957      7961      7962      7963
      7957      7961      7962      7964      7957      7961      7962      7965
      7958      7957      7961      7962      7959      7957      7961      7962
      7960      7957      7961      7962      7961      7962      7965      7966
      7961      7962      7965      7967      7961      7962      7965      7973
      7962      7965      7967      7968      7962      7965      7973      7974
      7962      7965      7973      7975      7962      7965      7973      7976
      7963      7962      7965      7966      7963      7962      7965      7967
      7963      7962      7965      7973      7964      7962      7965      7966
      7964      7962      7965      7967      7964      7962      7965      7973
      7965      7967      7968      7969      7965      7967      7968      7970
      7965      7973      7976      7977      7966      7965      7967      7968
      7966      7965      7973      7974      7966      7965      7973      7975
      7966      7965      7973      7976      7967      7965      7973      7974
      7967      7965      7973      7975      7967      7965      7973      7976
      7967      7968      7970      7971      7967      7968      7970      7972
      7967      7968      7970      7982      7968      7967      7965      7973
      7968      7970      7982      7983      7968      7970      7982      7984
      7968      7970      7982      7985      7969      7968      7970      7971
      7969      7968      7970      7972      7969      7968      7970      7982
      7970      7982      7985      7986      7970      7982      7985      7987
      7970      7982      7985      7988      7971      7970      7982      7983
      7971      7970      7982      7984      7971      7970      7982      7985
      7972      7970      7982      7983      7972      7970      7982      7984
      7972      7970      7982      7985      7973      7976      7977      7978
      7973      7976      7977      7979      7974      7973      7976      7977
      7975      7973      7976      7977      7976      7977      7979      7980
      7976      7977      7979      7981      7976      7977      7979      8029
      7977      7979      8029      8030      7977      7979      8029      8031
      7977      7979      8029      8032      7978      7977      7979      7980
      7978      7977      7979      7981      7978      7977      7979      8029
      7979      8029      8032      8033      7979      8029      8032      8034
      7979      8029      8032      8035      7980      7979      8029      8030
      7980      7979      8029      8031      7980      7979      8029      8032
      7981      7979      8029      8030      7981      7979      8029      8031
      7981      7979      8029      8032      7982      7985      7988      7989
      7982      7985      7988      7990      7983      7982      7985      7986
      7983      7982      7985      7987      7983      7982      7985      7988
      7984      7982      7985      7986      7984      7982      7985      7987
      7984      7982      7985      7988      7985      7988      7990      7991
      7985      7988      7990      7992      7986      7985      7988      7989
      7986      7985      7988      7990      7987      7985      7988      7989
      7987      7985      7988      7990      7988      7990      7992      7993
      7988      7990      7992      7994      7988      7990      7992      7995
      7989      7988      7990      7991      7989      7988      7990      7992
      7990      7992      7995      7996      7990      7992      7995      7997
      7991      7990      7992      7993      7991      7990      7992      7994
      7991      7990      7992      7995      7992      7995      7997      7998
      7992      7995      7997      7999      7993      7992      7995      7996
      7993      7992      7995      7997      7994      7992      7995      7996
      7994      7992      7995      7997      7995      7997      7999      8000
      7995      7997      7999      8001      7995      7997      7999      8002
      7996      7995      7997      7998      7996      7995      7997      7999
      7997      7999      8002      8003      7997      7999      8002      8004
      7998      7997      7999      8000      7998      7997      7999      8001
      7998      7997      7999      8002      7999      8002      8004      8005
      7999      8002      8004      8006      8000      7999      8002      8003
      8000      7999      8002      8004      8001      7999      8002      8003
      8001      7999      8002      8004      8002      8004      8006      8007
      8002      8004      8006      8008      8002      8004      8006      8009
      8003      8002      8004      8005      8003      8002      8004      8006
      8004      8006      8009      8010      8004      8006      8009      8011
      8005      8004      8006      8007      8005      8004      8006      8008
      8005      8004      8006      8009      8006      8009      8011      8012
      8006      8009      8011      8013      8007      8006      8009      8010
      8007      8006      8009      8011      8008      8006      8009      8010
      8008      8006      8009      8011      8009      8011      8013      8014
      8009      8011      8013      8015      8009      8011      8013      8016
      8010      8009      8011      8012      8010      8009      8011      8013
      8011      8013      8016      8017      8011      8013      8016      8018
      8011      8013      8016      8019      8012      8011      8013      8014
      8012      8011      8013      8015      8012      8011      8013      8016
      8013      8016      8019      8020      8013      8016      8019      8021
      8013      8016      8019      8022      8014      8013      8016      8017
      8014      8013      8016      8018      8014      8013      8016      8019
      8015      8013      8016      8017      8015      8013      8016      8018
      8015      8013      8016      8019      8016      8019      8022      8023
      8016      8019      8022      8024      8016      8019      8022      8025
      8017      8016      8019      8020      8017      8016      8019      8021
      8017      8016      8019      8022      8018      8016      8019      8020
      8018      8016      8019      8021      8018      8016      8019      8022
      8019      8022      8025      8026      8019      8022      8025      8027
      8019      8022      8025      8028      8020      8019      8022      8023
      8020      8019      8022      8024      8020      8019      8022      8025
      8021      8019      8022      8023      8021      8019      8022      8024
      8021      8019      8022      8025      8023      8022      8025      8026
      8023      8022      8025      8027      8023      8022      8025      8028
      8024      8022      8025      8026      8024      8022      8025      8027
      8024      8022      8025      8028      8029      8032      8035      8036
      8029      8032      8035      8037      8029      8032      8035      8038
      8030      8029      8032      8033      8030      8029      8032      8034
      8030      8029      8032      8035      8031      8029      8032      8033
      8031      8029      8032      8034      8031      8029      8032      8035
      8032      8035      8038      8039      8032      8035      8038      8040
      8032      8035      8038      8041      8033      8032      8035      8036
      8033      8032      8035      8037      8033      8032      8035      8038
      8034      8032      8035      8036      8034      8032      8035      8037
      8034      8032      8035      8038      8035      8038      8041      8042
      8035      8038      8041      8043      8035      8038      8041      8044
      8036      8035      8038      8039      8036      8035      8038      8040
      8036      8035      8038      8041      8037      8035      8038      8039
      8037      8035      8038      8040      8037      8035      8038      8041
      8038      8041      8044      8045      8038      8041      8044      8046
      8038      8041      8044      8047      8039      8038      8041      8042
      8039      8038      8041      8043      8039      8038      8041      8044
      8040      8038      8041      8042      8040      8038      8041      8043
      8040      8038      8041      8044      8041      8044      8047      8048
      8041      8044      8047      8049      8041      8044      8047      8050
      8042      8041      8044      8045      8042      8041      8044      8046
      8042      8041      8044      8047      8043      8041      8044      8045
      8043      8041      8044      8046      8043      8041      8044      8047
      8044      8047      8050      8051      8044      8047      8050      8052
      8044      8047      8050      8053      8045      8044      8047      8048
      8045      8044      8047      8049      8045      8044      8047      8050
      8046      8044      8047      8048      8046      8044      8047      8049
      8046      8044      8047      8050      8047      8050      8053      8054
      8047      8050      8053      8055      8047      8050      8053      8056
      8048      8047      8050      8051      8048      8047      8050      8052
      8048      8047      8050      8053      8049      8047      8050      8051
      8049      8047      8050      8052      8049      8047      8050      8053
      8050      8053      8056      8057      8050      8053      8056      8058
      8050      8053      8056      8059      8051      8050      8053      8054
      8051      8050      8053      8055      8051      8050      8053      8056
      8052      8050      8053      8054      8052      8050      8053      8055
      8052      8050      8053      8056      8053      8056      8059      8060
      8053      8056      8059      8061      8053      8056      8059      8062
      8054      8053      8056      8057      8054      8053      8056      8058
      8054      8053      8056      8059      8055      8053      8056      8057
      8055      8053      8056      8058      8055      8053      8056      8059
      8056      8059      8062      8063      8056      8059      8062      8064
      8056      8059      8062      8065      8057      8056      8059      8060
      8057      8056      8059      8061      8057      8056      8059      8062
      8058      8056      8059      8060      8058      8056      8059      8061
      8058      8056      8059      8062      8059      8062      8065      8066
      8059      8062      8065      8067      8059      8062      8065      8068
      8060      8059      8062      8063      8060      8059      8062      8064
      8060      8059      8062      8065      8061      8059      8062      8063
      8061      8059      8062      8064      8061      8059      8062      8065
      8062      8065      8068      8069      8062      8065      8068      8070
      8062      8065      8068      8071      8063      8062      8065      8066
      8063      8062      8065      8067      8063      8062      8065      8068
      8064      8062      8065      8066      8064      8062      8065      8067
      8064      8062      8065      8068      8065      8068      8071      8072
      8065      8068      8071      8073      8065      8068      8071      8074
      8066      8065      8068      8069      8066      8065      8068      8070
      8066      8065      8068      8071      8067      8065      8068      8069
      8067      8065      8068      8070      8067      8065      8068      8071
      8068      8071      8074      8075      8068      8071      8074      8076
      8068      8071      8074      8077      8069      8068      8071      8072
      8069      8068      8071      8073      8069      8068      8071      8074
      8070      8068      8071      8072      8070      8068      8071      8073
      8070      8068      8071      8074      8072      8071      8074      8075
      8072      8071      8074      8076      8072      8071      8074      8077
      8073      8071      8074      8075      8073      8071      8074      8076
      8073      8071      8074      8077      8078      8091      8094      8095
      8078      8091      8094      8096      8078      8091      8094      8100
      8079      8078      8083      8084      8079      8078      8083      8085
      8079      8078      8083      8086      8079      8078      8087      8088
      8079      8078      8087      8089      8079      8078      8087      8090
      8079      8078      8091      8092      8079      8078      8091      8093
      8079      8078      8091      8094      8080      8079      8078      8083
      8080      8079      8078      8087      8080      8079      8078      8091
      8081      8079      8078      8083      8081      8079      8078      8087
      8081      8079      8078      8091      8082      8079      8078      8083
      8082      8079      8078      8087      8082      8079      8078      8091
      8083      8078      8087      8088      8083      8078      8087      8089
      8083      8078      8087      8090      8083      8078      8091      8092
      8083      8078      8091      8093      8083      8078      8091      8094
      8084      8083      8078      8087      8084      8083      8078      8091
      8085      8083      8078      8087      8085      8083      8078      8091
      8086      8083      8078      8087      8086      8083      8078      8091
      8087      8078      8091      8092      8087      8078      8091      8093
      8087      8078      8091      8094      8088      8087      8078      8091
      8089      8087      8078      8091      8090      8087      8078      8091
      8091      8094      8100      8097      8092      8091      8094      8095
      8092      8091      8094      8096      8092      8091      8094      8100
      8093      8091      8094      8095      8093      8091      8094      8096
      8093      8091      8094      8100      8094      8100      8097      8098
      8094      8100      8097      8099      8094      8100      8097      8101
      8095      8094      8100      8097      8096      8094      8100      8097
      8097      8101      8102      8103      8097      8101      8102      8104
      8097      8101      8102      8105      8098      8097      8101      8102
      8099      8097      8101      8102      8100      8097      8101      8102
      8101      8102      8105      8106      8101      8102      8105      8107
      8101      8102      8105      8113      8102      8105      8107      8108
      8102      8105      8113      8114      8102      8105      8113      8115
      8102      8105      8113      8116      8103      8102      8105      8106
      8103      8102      8105      8107      8103      8102      8105      8113
      8104      8102      8105      8106      8104      8102      8105      8107
      8104      8102      8105      8113      8105      8107      8108      8109
      8105      8107      8108      8110      8105      8113      8116      8117
      8106      8105      8107      8108      8106      8105      8113      8114
      8106      8105      8113      8115      8106      8105      8113      8116
      8107      8105      8113      8114      8107      8105      8113      8115
      8107      8105      8113      8116      8107      8108      8110      8111
      8107      8108      8110      8112      8107      8108      8110      8122
      8108      8107      8105      8113      8108      8110      8122      8123
      8108      8110      8122      8124      8108      8110      8122      8125
      8109      8108      8110      8111      8109      8108      8110      8112
      8109      8108      8110      8122      8110      8122      8125      8126
      8110      8122      8125      8127      8110      8122      8125      8128
      8111      8110      8122      8123      8111      8110      8122      8124
      8111      8110      8122      8125      8112      8110      8122      8123
      8112      8110      8122      8124      8112      8110      8122      8125
      8113      8116      8117      8118      8113      8116      8117      8119
      8114      8113      8116      8117      8115      8113      8116      8117
      8116      8117      8119      8120      8116      8117      8119      8121
      8116      8117      8119      8167      8117      8119      8167      8168
      8117      8119      8167      8169      8117      8119      8167      8170
      8118      8117      8119      8120      8118      8117      8119      8121
      8118      8117      8119      8167      8119      8167      8170      8171
      8119      8167      8170      8172      8119      8167      8170      8173
      8120      8119      8167      8168      8120      8119      8167      8169
      8120      8119      8167      8170      8121      8119      8167      8168
      8121      8119      8167      8169      8121      8119      8167      8170
      8122      8125      8128      8129      8122      8125      8128      8130
      8122      8125      8128      8131      8123      8122      8125      8126
      8123      8122      8125      8127      8123      8122      8125      8128
      8124      8122      8125      8126      8124      8122      8125      8127
      8124      8122      8125      8128      8125      8128      8131      8132
      8125      8128      8131      8133      8125      8128      8131      8134
      8126      8125      8128      8129      8126      8125      8128      8130
      8126      8125      8128      8131      8127      8125      8128      8129
      8127      8125      8128      8130      8127      8125      8128      8131
      8128      8131      8134      8135      8128      8131      8134      8136
      8128      8131      8134      8137      8129      8128      8131      8132
      8129      8128      8131      8133      8129      8128      8131      8134
      8130      8128      8131      8132      8130      8128      8131      8133
      8130      8128      8131      8134      8131      8134      8137      8138
      8131      8134      8137      8139      8131      8134      8137      8140
      8132      8131      8134      8135      8132      8131      8134      8136
      8132      8131      8134      8137      8133      8131      8134      8135
      8133      8131      8134      8136      8133      8131      8134      8137
      8134      8137      8140      8141      8134      8137      8140      8142
      8135      8134      8137      8138      8135      8134      8137      8139
      8135      8134      8137      8140      8136      8134      8137      8138
      8136      8134      8137      8139      8136      8134      8137      8140
      8137      8140      8142      8143      8137      8140      8142      8144
      8138      8137      8140      8141      8138      8137      8140      8142
      8139      8137      8140      8141      8139      8137      8140      8142
      8140      8142      8144      8145      8140      8142      8144      8146
      8140      8142      8144      8147      8141      8140      8142      8143
      8141      8140      8142      8144      8142      8144      8147      8148
      8142      8144      8147      8149      8143      8142      8144      8145
      8143      8142      8144      8146      8143      8142      8144      8147
      8144      8147      8149      8150      8144      8147      8149      8151
      8145      8144      8147      8148      8145      8144      8147      8149
      8146      8144      8147      8148      8146      8144      8147      8149
      8147      8149      8151      8152      8147      8149      8151      8153
      8147      8149      8151      8154      8148      8147      8149      8150
      8148      8147      8149      8151      8149      8151      8154      8155
      8149      8151      8154      8156      8149      8151      8154      8157
      8150      8149      8151      8152      8150      8149      8151      8153
      8150      8149      8151      8154      8151      8154      8157      8158
      8151      8154      8157      8159      8151      8154      8157      8160
      8152      8151      8154      8155      8152      8151      8154      8156
      8152      8151      8154      8157      8153      8151      8154      8155
      8153      8151      8154      8156      8153      8151      8154      8157
      8154      8157      8160      8161      8154      8157      8160      8162
      8154      8157      8160      8163      8155      8154      8157      8158
      8155      8154      8157      8159      8155      8154      8157      8160
      8156      8154      8157      8158      8156      8154      8157      8159
      8156      8154      8157      8160      8157      8160      8163      8164
      8157      8160      8163      8165      8157      8160      8163      8166
      8158      8157      8160      8161      8158      8157      8160      8162
      8158      8157      8160      8163      8159      8157      8160      8161
      8159      8157      8160      8162      8159      8157      8160      8163
      8161      8160      8163      8164      8161      8160      8163      8165
      8161      8160      8163      8166      8162      8160      8163      8164
      8162      8160      8163      8165      8162      8160      8163      8166
      8167      8170      8173      8174      8167      8170      8173      8175
      8167      8170      8173      8176      8168      8167      8170      8171
      8168      8167      8170      8172      8168      8167      8170      8173
      8169      8167      8170      8171      8169      8167      8170      8172
      8169      8167      8170      8173      8170      8173      8176      8177
      8170      8173      8176      8178      8170      8173      8176      8179
      8171      8170      8173      8174      8171      8170      8173      8175
      8171      8170      8173      8176      8172      8170      8173      8174
      8172      8170      8173      8175      8172      8170      8173      8176
      8173      8176      8179      8180      8173      8176      8179      8181
      8173      8176      8179      8182      8174      8173      8176      8177
      8174      8173      8176      8178      8174      8173      8176      8179
      8175      8173      8176      8177      8175      8173      8176      8178
      8175      8173      8176      8179      8176      8179      8182      8183
      8176      8179      8182      8184      8176      8179      8182      8185
      8177      8176      8179      8180      8177      8176      8179      8181
      8177      8176      8179      8182      8178      8176      8179      8180
      8178      8176      8179      8181      8178      8176      8179      8182
      8179      8182      8185      8186      8179      8182      8185      8187
      8179      8182      8185      8188      8180      8179      8182      8183
      8180      8179      8182      8184      8180      8179      8182      8185
      8181      8179      8182      8183      8181      8179      8182      8184
      8181      8179      8182      8185      8182      8185      8188      8189
      8182      8185      8188      8190      8182      8185      8188      8191
      8183      8182      8185      8186      8183      8182      8185      8187
      8183      8182      8185      8188      8184      8182      8185      8186
      8184      8182      8185      8187      8184      8182      8185      8188
      8185      8188      8191      8192      8185      8188      8191      8193
      8185      8188      8191      8194      8186      8185      8188      8189
      8186      8185      8188      8190      8186      8185      8188      8191
      8187      8185      8188      8189      8187      8185      8188      8190
      8187      8185      8188      8191      8188      8191      8194      8195
      8188      8191      8194      8196      8188      8191      8194      8197
      8189      8188      8191      8192      8189      8188      8191      8193
      8189      8188      8191      8194      8190      8188      8191      8192
      8190      8188      8191      8193      8190      8188      8191      8194
      8191      8194      8197      8198      8191      8194      8197      8199
      8191      8194      8197      8200      8192      8191      8194      8195
      8192      8191      8194      8196      8192      8191      8194      8197
      8193      8191      8194      8195      8193      8191      8194      8196
      8193      8191      8194      8197      8194      8197      8200      8201
      8194      8197      8200      8202      8194      8197      8200      8203
      8195      8194      8197      8198      8195      8194      8197      8199
      8195      8194      8197      8200      8196      8194      8197      8198
      8196      8194      8197      8199      8196      8194      8197      8200
      8197      8200      8203      8204      8197      8200      8203      8205
      8197      8200      8203      8206      8198      8197      8200      8201
      8198      8197      8200      8202      8198      8197      8200      8203
      8199      8197      8200      8201      8199      8197      8200      8202
      8199      8197      8200      8203      8200      8203      8206      8207
      8200      8203      8206      8208      8200      8203      8206      8209
      8201      8200      8203      8204      8201      8200      8203      8205
      8201      8200      8203      8206      8202      8200      8203      8204
      8202      8200      8203      8205      8202      8200      8203      8206
      8203      8206      8209      8210      8203      8206      8209      8211
      8203      8206      8209      8212      8204      8203      8206      8207
      8204      8203      8206      8208      8204      8203      8206      8209
      8205      8203      8206      8207      8205      8203      8206      8208
      8205      8203      8206      8209      8206      8209      8212      8213
      8206      8209      8212      8214      8206      8209      8212      8215
      8207      8206      8209      8210      8207      8206      8209      8211
      8207      8206      8209      8212      8208      8206      8209      8210
      8208      8206      8209      8211      8208      8206      8209      8212
      8210      8209      8212      8213      8210      8209      8212      8214
      8210      8209      8212      8215      8211      8209      8212      8213
      8211      8209      8212      8214      8211      8209      8212      8215
      8216      8229      8232      8233      8216      8229      8232      8234
      8216      8229      8232      8238      8217      8216      8221      8222
      8217      8216      8221      8223      8217      8216      8221      8224
      8217      8216      8225      8226      8217      8216      8225      8227
      8217      8216      8225      8228      8217      8216      8229      8230
      8217      8216      8229      8231      8217      8216      8229      8232
      8218      8217      8216      8221      8218      8217      8216      8225
      8218      8217      8216      8229      8219      8217      8216      8221
      8219      8217      8216      8225      8219      8217      8216      8229
      8220      8217      8216      8221      8220      8217      8216      8225
      8220      8217      8216      8229      8221      8216      8225      8226
      8221      8216      8225      8227      8221      8216      8225      8228
      8221      8216      8229      8230      8221      8216      8229      8231
      8221      8216      8229      8232      8222      8221      8216      8225
      8222      8221      8216      8229      8223      8221      8216      8225
      8223      8221      8216      8229      8224      8221      8216      8225
      8224      8221      8216      8229      8225      8216      8229      8230
      8225      8216      8229      8231      8225      8216      8229      8232
      8226      8225      8216      8229      8227      8225      8216      8229
      8228      8225      8216      8229      8229      8232      8238      8235
      8230      8229      8232      8233      8230      8229      8232      8234
      8230      8229      8232      8238      8231      8229      8232      8233
      8231      8229      8232      8234      8231      8229      8232      8238
      8232      8238      8235      8236      8232      8238      8235      8237
      8232      8238      8235      8239      8233      8232      8238      8235
      8234      8232      8238      8235      8235      8239      8240      8241
      8235      8239      8240      8242      8235      8239      8240      8243
      8236      8235      8239      8240      8237      8235      8239      8240
      8238      8235      8239      8240      8239      8240      8243      8244
      8239      8240      8243      8245      8239      8240      8243      8251
      8240      8243      8245      8246      8240      8243      8251      8252
      8240      8243      8251      8253      8240      8243      8251      8254
      8241      8240      8243      8244      8241      8240      8243      8245
      8241      8240      8243      8251      8242      8240      8243      8244
      8242      8240      8243      8245      8242      8240      8243      8251
      8243      8245      8246      8247      8243      8245      8246      8248
      8243      8251      8254      8255      8244      8243      8245      8246
      8244      8243      8251      8252      8244      8243      8251      8253
      8244      8243      8251      8254      8245      8243      8251      8252
      8245      8243      8251      8253      8245      8243      8251      8254
      8245      8246      8248      8249      8245      8246      8248      8250
      8245      8246      8248      8260      8246      8245      8243      8251
      8246      8248      8260      8261      8246      8248      8260      8262
      8246      8248      8260      8263      8247      8246      8248      8249
      8247      8246      8248      8250      8247      8246      8248      8260
      8248      8260      8263      8264      8248      8260      8263      8265
      8248      8260      8263      8266      8249      8248      8260      8261
      8249      8248      8260      8262      8249      8248      8260      8263
      8250      8248      8260      8261      8250      8248      8260      8262
      8250      8248      8260      8263      8251      8254      8255      8256
      8251      8254      8255      8257      8252      8251      8254      8255
      8253      8251      8254      8255      8254      8255      8257      8258
      8254      8255      8257      8259      8254      8255      8257      8305
      8255      8257      8305      8306      8255      8257      8305      8307
      8255      8257      8305      8308      8256      8255      8257      8258
      8256      8255      8257      8259      8256      8255      8257      8305
      8257      8305      8308      8309      8257      8305      8308      8310
      8257      8305      8308      8311      8258      8257      8305      8306
      8258      8257      8305      8307      8258      8257      8305      8308
      8259      8257      8305      8306      8259      8257      8305      8307
      8259      8257      8305      8308      8260      8263      8266      8267
      8260      8263      8266      8268      8260      8263      8266      8269
      8261      8260      8263      8264      8261      8260      8263      8265
      8261      8260      8263      8266      8262      8260      8263      8264
      8262      8260      8263      8265      8262      8260      8263      8266
      8263      8266      8269      8270      8263      8266      8269      8271
      8263      8266      8269      8272      8264      8263      8266      8267
      8264      8263      8266      8268      8264      8263      8266      8269
      8265      8263      8266      8267      8265      8263      8266      8268
      8265      8263      8266      8269      8266      8269      8272      8273
      8266      8269      8272      8274      8266      8269      8272      8275
      8267      8266      8269      8270      8267      8266      8269      8271
      8267      8266      8269      8272      8268      8266      8269      8270
      8268      8266      8269      8271      8268      8266      8269      8272
      8269      8272      8275      8276      8269      8272      8275      8277
      8269      8272      8275      8278      8270      8269      8272      8273
      8270      8269      8272      8274      8270      8269      8272      8275
      8271      8269      8272      8273      8271      8269      8272      8274
      8271      8269      8272      8275      8272      8275      8278      8279
      8272      8275      8278      8280      8273      8272      8275      8276
      8273      8272      8275      8277      8273      8272      8275      8278
      8274      8272      8275      8276      8274      8272      8275      8277
      8274      8272      8275      8278      8275      8278      8280      8281
      8275      8278      8280      8282      8276      8275      8278      8279
      8276      8275      8278      8280      8277      8275      8278      8279
      8277      8275      8278      8280      8278      8280      8282      8283
      8278      8280      8282      8284      8278      8280      8282      8285
      8279      8278      8280      8281      8279      8278      8280      8282
      8280      8282      8285      8286      8280      8282      8285      8287
      8281      8280      8282      8283      8281      8280      8282      8284
      8281      8280      8282      8285      8282      8285      8287      8288
      8282      8285      8287      8289      8283      8282      8285      8286
      8283      8282      8285      8287      8284      8282      8285      8286
      8284      8282      8285      8287      8285      8287      8289      8290
      8285      8287      8289      8291      8285      8287      8289      8292
      8286      8285      8287      8288      8286      8285      8287      8289
      8287      8289      8292      8293      8287      8289      8292      8294
      8287      8289      8292      8295      8288      8287      8289      8290
      8288      8287      8289      8291      8288      8287      8289      8292
      8289      8292      8295      8296      8289      8292      8295      8297
      8289      8292      8295      8298      8290      8289      8292      8293
      8290      8289      8292      8294      8290      8289      8292      8295
      8291      8289      8292      8293      8291      8289      8292      8294
      8291      8289      8292      8295      8292      8295      8298      8299
      8292      8295      8298      8300      8292      8295      8298      8301
      8293      8292      8295      8296      8293      8292      8295      8297
      8293      8292      8295      8298      8294      8292      8295      8296
      8294      8292      8295      8297      8294      8292      8295      8298
      8295      8298      8301      8302      8295      8298      8301      8303
      8295      8298      8301      8304      8296      8295      8298      8299
      8296      8295      8298      8300      8296      8295      8298      8301
      8297      8295      8298      8299      8297      8295      8298      8300
      8297      8295      8298      8301      8299      8298      8301      8302
      8299      8298      8301      8303      8299      8298      8301      8304
      8300      8298      8301      8302      8300      8298      8301      8303
      8300      8298      8301      8304      8305      8308      8311      8312
      8305      8308      8311      8313      8305      8308      8311      8314
      8306      8305      8308      8309      8306      8305      8308      8310
      8306      8305      8308      8311      8307      8305      8308      8309
      8307      8305      8308      8310      8307      8305      8308      8311
      8308      8311      8314      8315      8308      8311      8314      8316
      8308      8311      8314      8317      8309      8308      8311      8312
      8309      8308      8311      8313      8309      8308      8311      8314
      8310      8308      8311      8312      8310      8308      8311      8313
      8310      8308      8311      8314      8311      8314      8317      8318
      8311      8314      8317      8319      8311      8314      8317      8320
      8312      8311      8314      8315      8312      8311      8314      8316
      8312      8311      8314      8317      8313      8311      8314      8315
      8313      8311      8314      8316      8313      8311      8314      8317
      8314      8317      8320      8321      8314      8317      8320      8322
      8314      8317      8320      8323      8315      8314      8317      8318
      8315      8314      8317      8319      8315      8314      8317      8320
      8316      8314      8317      8318      8316      8314      8317      8319
      8316      8314      8317      8320      8317      8320      8323      8324
      8317      8320      8323      8325      8317      8320      8323      8326
      8318      8317      8320      8321      8318      8317      8320      8322
      8318      8317      8320      8323      8319      8317      8320      8321
      8319      8317      8320      8322      8319      8317      8320      8323
      8320      8323      8326      8327      8320      8323      8326      8328
      8320      8323      8326      8329      8321      8320      8323      8324
      8321      8320      8323      8325      8321      8320      8323      8326
      8322      8320      8323      8324      8322      8320      8323      8325
      8322      8320      8323      8326      8323      8326      8329      8330
      8323      8326      8329      8331      8323      8326      8329      8332
      8324      8323      8326      8327      8324      8323      8326      8328
      8324      8323      8326      8329      8325      8323      8326      8327
      8325      8323      8326      8328      8325      8323      8326      8329
      8326      8329      8332      8333      8326      8329      8332      8334
      8326      8329      8332      8335      8327      8326      8329      8330
      8327      8326      8329      8331      8327      8326      8329      8332
      8328      8326      8329      8330      8328      8326      8329      8331
      8328      8326      8329      8332      8329      8332      8335      8336
      8329      8332      8335      8337      8329      8332      8335      8338
      8330      8329      8332      8333      8330      8329      8332      8334
      8330      8329      8332      8335      8331      8329      8332      8333
      8331      8329      8332      8334      8331      8329      8332      8335
      8332      8335      8338      8339      8332      8335      8338      8340
      8332      8335      8338      8341      8333      8332      8335      8336
      8333      8332      8335      8337      8333      8332      8335      8338
      8334      8332      8335      8336      8334      8332      8335      8337
      8334      8332      8335      8338      8335      8338      8341      8342
      8335      8338      8341      8343      8335      8338      8341      8344
      8336      8335      8338      8339      8336      8335      8338      8340
      8336      8335      8338      8341      8337      8335      8338      8339
      8337      8335      8338      8340      8337      8335      8338      8341
      8338      8341      8344      8345      8338      8341      8344      8346
      8338      8341      8344      8347      8339      8338      8341      8342
      8339      8338      8341      8343      8339      8338      8341      8344
      8340      8338      8341      8342      8340      8338      8341      8343
      8340      8338      8341      8344      8341      8344      8347      8348
      8341      8344      8347      8349      8341      8344      8347      8350
      8342      8341      8344      8345      8342      8341      8344      8346
      8342      8341      8344      8347      8343      8341      8344      8345
      8343      8341      8344      8346      8343      8341      8344      8347
      8344      8347      8350      8351      8344      8347      8350      8352
      8344      8347      8350      8353      8345      8344      8347      8348
      8345      8344      8347      8349      8345      8344      8347      8350
      8346      8344      8347      8348      8346      8344      8347      8349
      8346      8344      8347      8350      8348      8347      8350      8351
      8348      8347      8350      8352      8348      8347      8350      8353
      8349      8347      8350      8351      8349      8347      8350      8352
      8349      8347      8350      8353      8354      8367      8370      8371
      8354      8367      8370      8372      8354      8367      8370      8377
      8355      8354      8359      8360      8355      8354      8359      8361
      8355      8354      8359      8362      8355      8354      8363      8364
      8355      8354      8363      8365      8355      8354      8363      8366
      8355      8354      8367      8368      8355      8354      8367      8369
      8355      8354      8367      8370      8356      8355      8354      8359
      8356      8355      8354      8363      8356      8355      8354      8367
      8357      8355      8354      8359      8357      8355      8354      8363
      8357      8355      8354      8367      8358      8355      8354      8359
      8358      8355      8354      8363      8358      8355      8354      8367
      8359      8354      8363      8364      8359      8354      8363      8365
      8359      8354      8363      8366      8359      8354      8367      8368
      8359      8354      8367      8369      8359      8354      8367      8370
      8360      8359      8354      8363      8360      8359      8354      8367
      8361      8359      8354      8363      8361      8359      8354      8367
      8362      8359      8354      8363      8362      8359      8354      8367
      8363      8354      8367      8368      8363      8354      8367      8369
      8363      8354      8367      8370      8364      8363      8354      8367
      8365      8363      8354      8367      8366      8363      8354      8367
      8367      8370      8377      8373      8368      8367      8370      8371
      8368      8367      8370      8372      8368      8367      8370      8377
      8369      8367      8370      8371      8369      8367      8370      8372
      8369      8367      8370      8377      8370      8377      8373      8374
      8370      8377      8373      8375      8370      8377      8373      8376
      8371      8370      8377      8373      8372      8370      8377      8373
      8373      8376      8378      8379      8373      8376      8378      8380
      8373      8376      8378      8383      8374      8373      8376      8378
      8375      8373      8376      8378      8376      8378      8383      8381
      8376      8378      8383      8384      8376      8378      8383      8385
      8377      8373      8376      8378      8378      8383      8381      8382
      8378      8383      8381      8433      8378      8383      8385      8386
      8378      8383      8385      8387      8378      8383      8385      8389
      8379      8378      8383      8381      8379      8378      8383      8384
      8379      8378      8383      8385      8380      8378      8383      8381
      8380      8378      8383      8384      8380      8378      8383      8385
      8381      8383      8385      8386      8381      8383      8385      8387
      8381      8383      8385      8389      8381      8433      8435      8436
      8381      8433      8435      8437      8381      8433      8435      8438
      8382      8381      8383      8384      8382      8381      8383      8385
      8382      8381      8433      8434      8382      8381      8433      8435
      8383      8381      8433      8434      8383      8381      8433      8435
      8383      8385      8387      8388      8383      8385      8389      8390
      8383      8385      8389      8391      8384      8383      8381      8433
      8384      8383      8385      8386      8384      8383      8385      8387
      8384      8383      8385      8389      8385      8383      8381      8433
      8385      8389      8391      8392      8385      8389      8391      8393
      8386      8385      8387      8388      8386      8385      8389      8390
      8386      8385      8389      8391      8387      8385      8389      8390
      8387      8385      8389      8391      8388      8387      8385      8389
      8389      8391      8393      8394      8389      8391      8393      8395
      8389      8391      8393      8396      8390      8389      8391      8392
      8390      8389      8391      8393      8391      8393      8396      8397
      8391      8393      8396      8398      8391      8393      8396      8399
      8392      8391      8393      8394      8392      8391      8393      8395
      8392      8391      8393      8396      8393      8396      8399      8400
      8393      8396      8399      8401      8393      8396      8399      8402
      8394      8393      8396      8397      8394      8393      8396      8398
      8394      8393      8396      8399      8395      8393      8396      8397
      8395      8393      8396      8398      8395      8393      8396      8399
      8396      8399      8402      8403      8396      8399      8402      8404
      8396      8399      8402      8405      8397      8396      8399      8400
      8397      8396      8399      8401      8397      8396      8399      8402
      8398      8396      8399      8400      8398      8396      8399      8401
      8398      8396      8399      8402      8399      8402      8405      8406
      8399      8402      8405      8407      8399      8402      8405      8408
      8400      8399      8402      8403      8400      8399      8402      8404
      8400      8399      8402      8405      8401      8399      8402      8403
      8401      8399      8402      8404      8401      8399      8402      8405
      8402      8405      8408      8409      8402      8405      8408      8410
      8402      8405      8408      8411      8403      8402      8405      8406
      8403      8402      8405      8407      8403      8402      8405      8408
      8404      8402      8405      8406      8404      8402      8405      8407
      8404      8402      8405      8408      8405      8408      8411      8412
      8405      8408      8411      8413      8405      8408      8411      8414
      8406      8405      8408      8409      8406      8405      8408      8410
      8406      8405      8408      8411      8407      8405      8408      8409
      8407      8405      8408      8410      8407      8405      8408      8411
      8408      8411      8414      8415      8408      8411      8414      8416
      8408      8411      8414      8417      8409      8408      8411      8412
      8409      8408      8411      8413      8409      8408      8411      8414
      8410      8408      8411      8412      8410      8408      8411      8413
      8410      8408      8411      8414      8411      8414      8417      8418
      8411      8414      8417      8419      8411      8414      8417      8420
      8412      8411      8414      8415      8412      8411      8414      8416
      8412      8411      8414      8417      8413      8411      8414      8415
      8413      8411      8414      8416      8413      8411      8414      8417
      8414      8417      8420      8421      8414      8417      8420      8422
      8414      8417      8420      8423      8415      8414      8417      8418
      8415      8414      8417      8419      8415      8414      8417      8420
      8416      8414      8417      8418      8416      8414      8417      8419
      8416      8414      8417      8420      8417      8420      8423      8424
      8417      8420      8423      8425      8417      8420      8423      8426
      8418      8417      8420      8421      8418      8417      8420      8422
      8418      8417      8420      8423      8419      8417      8420      8421
      8419      8417      8420      8422      8419      8417      8420      8423
      8420      8423      8426      8427      8420      8423      8426      8428
      8420      8423      8426      8429      8421      8420      8423      8424
      8421      8420      8423      8425      8421      8420      8423      8426
      8422      8420      8423      8424      8422      8420      8423      8425
      8422      8420      8423      8426      8423      8426      8429      8430
      8423      8426      8429      8431      8423      8426      8429      8432
      8424      8423      8426      8427      8424      8423      8426      8428
      8424      8423      8426      8429      8425      8423      8426      8427
      8425      8423      8426      8428      8425      8423      8426      8429
      8427      8426      8429      8430      8427      8426      8429      8431
      8427      8426      8429      8432      8428      8426      8429      8430
      8428      8426      8429      8431      8428      8426      8429      8432
      8433      8435      8438      8439      8433      8435      8438      8440
      8433      8435      8438      8441      8434      8433      8435      8436
      8434      8433      8435      8437      8434      8433      8435      8438
      8435      8438      8441      8442      8435      8438      8441      8443
      8435      8438      8441      8444      8436      8435      8438      8439
      8436      8435      8438      8440      8436      8435      8438      8441
      8437      8435      8438      8439      8437      8435      8438      8440
      8437      8435      8438      8441      8438      8441      8444      8445
      8438      8441      8444      8446      8438      8441      8444      8447
      8439      8438      8441      8442      8439      8438      8441      8443
      8439      8438      8441      8444      8440      8438      8441      8442
      8440      8438      8441      8443      8440      8438      8441      8444
      8441      8444      8447      8448      8441      8444      8447      8449
      8441      8444      8447      8450      8442      8441      8444      8445
      8442      8441      8444      8446      8442      8441      8444      8447
      8443      8441      8444      8445      8443      8441      8444      8446
      8443      8441      8444      8447      8444      8447      8450      8451
      8444      8447      8450      8452      8444      8447      8450      8453
      8445      8444      8447      8448      8445      8444      8447      8449
      8445      8444      8447      8450      8446      8444      8447      8448
      8446      8444      8447      8449      8446      8444      8447      8450
      8447      8450      8453      8454      8447      8450      8453      8455
      8447      8450      8453      8456      8448      8447      8450      8451
      8448      8447      8450      8452      8448      8447      8450      8453
      8449      8447      8450      8451      8449      8447      8450      8452
      8449      8447      8450      8453      8450      8453      8456      8457
      8450      8453      8456      8458      8451      8450      8453      8454
      8451      8450      8453      8455      8451      8450      8453      8456
      8452      8450      8453      8454      8452      8450      8453      8455
      8452      8450      8453      8456      8453      8456      8458      8459
      8453      8456      8458      8460      8454      8453      8456      8457
      8454      8453      8456      8458      8455      8453      8456      8457
      8455      8453      8456      8458      8456      8458      8460      8461
      8456      8458      8460      8462      8456      8458      8460      8463
      8457      8456      8458      8459      8457      8456      8458      8460
      8458      8460      8463      8464      8458      8460      8463      8465
      8458      8460      8463      8466      8459      8458      8460      8461
      8459      8458      8460      8462      8459      8458      8460      8463
      8460      8463      8466      8467      8460      8463      8466      8468
      8460      8463      8466      8469      8461      8460      8463      8464
      8461      8460      8463      8465      8461      8460      8463      8466
      8462      8460      8463      8464      8462      8460      8463      8465
      8462      8460      8463      8466      8463      8466      8469      8470
      8463      8466      8469      8471      8463      8466      8469      8472
      8464      8463      8466      8467      8464      8463      8466      8468
      8464      8463      8466      8469      8465      8463      8466      8467
      8465      8463      8466      8468      8465      8463      8466      8469
      8466      8469      8472      8473      8466      8469      8472      8474
      8466      8469      8472      8475      8467      8466      8469      8470
      8467      8466      8469      8471      8467      8466      8469      8472
      8468      8466      8469      8470      8468      8466      8469      8471
      8468      8466      8469      8472      8469      8472      8475      8476
      8469      8472      8475      8477      8469      8472      8475      8478
      8470      8469      8472      8473      8470      8469      8472      8474
      8470      8469      8472      8475      8471      8469      8472      8473
      8471      8469      8472      8474      8471      8469      8472      8475
      8472      8475      8478      8479      8472      8475      8478      8480
      8472      8475      8478      8481      8473      8472      8475      8476
      8473      8472      8475      8477      8473      8472      8475      8478
      8474      8472      8475      8476      8474      8472      8475      8477
      8474      8472      8475      8478      8475      8478      8481      8482
      8475      8478      8481      8483      8475      8478      8481      8484
      8476      8475      8478      8479      8476      8475      8478      8480
      8476      8475      8478      8481      8477      8475      8478      8479
      8477      8475      8478      8480      8477      8475      8478      8481
      8479      8478      8481      8482      8479      8478      8481      8483
      8479      8478      8481      8484      8480      8478      8481      8482
      8480      8478      8481      8483      8480      8478      8481      8484
      8485      8489      8492      8493      8485      8489      8492      8523
      8485      8531      8528      8523      8485      8531      8528      8529
      8485      8531      8528      8530      8486      8485      8487      8488
      8486      8485      8489      8490      8486      8485      8489      8491
      8486      8485      8489      8492      8486      8485      8531      8528
      8486      8485      8531      8532      8486      8485      8531      8533
      8487      8485      8489      8490      8487      8485      8489      8491
      8487      8485      8489      8492      8487      8485      8531      8528
      8487      8485      8531      8532      8487      8485      8531      8533
      8488      8487      8485      8489      8488      8487      8485      8531
      8489      8485      8531      8528      8489      8485      8531      8532
      8489      8485      8531      8533      8489      8492      8493      8494
      8489      8492      8493      8495      8489      8492      8523      8521
      8489      8492      8523      8524      8489      8492      8523      8528
      8490      8489      8485      8531      8490      8489      8492      8493
      8490      8489      8492      8523      8491      8489      8485      8531
      8491      8489      8492      8493      8491      8489      8492      8523
      8492      8489      8485      8531      8492      8493      8495      8496
      8492      8493      8495      8497      8492      8493      8495      8498
      8492      8523      8521      8498      8492      8523      8521      8518
      8492      8523      8521      8522      8492      8523      8524      8525
      8492      8523      8524      8526      8492      8523      8524      8527
      8492      8523      8528      8529      8492      8523      8528      8530
      8492      8523      8528      8531      8493      8492      8523      8521
      8493      8492      8523      8524      8493      8492      8523      8528
      8493      8495      8498      8499      8493      8495      8498      8500
      8493      8495      8498      8521      8494      8493      8492      8523
      8494      8493      8495      8496      8494      8493      8495      8497
      8494      8493      8495      8498      8495      8493      8492      8523
      8495      8498      8500      8501      8495      8498      8500      8502
      8495      8498      8500      8510      8495      8498      8521      8518
      8495      8498      8521      8522      8495      8498      8521      8523
      8496      8495      8498      8499      8496      8495      8498      8500
      8496      8495      8498      8521      8497      8495      8498      8499
      8497      8495      8498      8500      8497      8495      8498      8521
      8498      8500      8502      8503      8498      8500      8502      8504
      8498      8500      8502      8505      8498      8500      8510      8508
      8498      8500      8510      8511      8498      8500      8510      8515
      8498      8521      8518      8515      8498      8521      8518      8519
      8498      8521      8518      8520      8498      8521      8523      8524
      8498      8521      8523      8528      8499      8498      8500      8501
      8499      8498      8500      8502      8499      8498      8500      8510
      8499      8498      8521      8518      8499      8498      8521      8522
      8499      8498      8521      8523      8500      8498      8521      8518
      8500      8498      8521      8522      8500      8498      8521      8523
      8500      8502      8505      8506      8500      8502      8505      8507
      8500      8502      8505      8508      8500      8510      8508      8505
      8500      8510      8508      8509      8500      8510      8508      8534
      8500      8510      8511      8512      8500      8510      8511      8513
      8500      8510      8511      8514      8500      8510      8515      8516
      8500      8510      8515      8517      8500      8510      8515      8518
      8501      8500      8498      8521      8501      8500      8502      8503
      8501      8500      8502      8504      8501      8500      8502      8505
      8501      8500      8510      8508      8501      8500      8510      8511
      8501      8500      8510      8515      8502      8500      8498      8521
      8502      8500      8510      8508      8502      8500      8510      8511
      8502      8500      8510      8515      8502      8505      8508      8509
      8502      8505      8508      8510      8502      8505      8508      8534
      8503      8502      8500      8510      8503      8502      8505      8506
      8503      8502      8505      8507      8503      8502      8505      8508
      8504      8502      8500      8510      8504      8502      8505      8506
      8504      8502      8505      8507      8504      8502      8505      8508
      8505      8502      8500      8510      8505      8508      8510      8511
      8505      8508      8510      8515      8505      8508      8534      8535
      8505      8508      8534      8536      8505      8508      8534      8540
      8506      8505      8508      8509      8506      8505      8508      8510
      8506      8505      8508      8534      8507      8505      8508      8509
      8507      8505      8508      8510      8507      8505      8508      8534
      8508      8510      8511      8512      8508      8510      8511      8513
      8508      8510      8511      8514      8508      8510      8515      8516
      8508      8510      8515      8517      8508      8510      8515      8518
      8508      8534      8536      8537      8508      8534      8536      8538
      8508      8534      8536      8539      8508      8534      8540      8541
      8508      8534      8540      8542      8508      8534      8540      8543
      8509      8508      8510      8511      8509      8508      8510      8515
      8509      8508      8534      8535      8509      8508      8534      8536
      8509      8508      8534      8540      8510      8500      8498      8521
      8510      8508      8534      8535      8510      8508      8534      8536
      8510      8508      8534      8540      8510      8515      8518      8519
      8510      8515      8518      8520      8510      8515      8518      8521
      8511      8510      8508      8534      8511      8510      8515      8516
      8511      8510      8515      8517      8511      8510      8515      8518
      8512      8511      8510      8515      8513      8511      8510      8515
      8514      8511      8510      8515      8515      8510      8508      8534
      8515      8518      8521      8522      8515      8518      8521      8523
      8516      8515      8518      8519      8516      8515      8518      8520
      8516      8515      8518      8521      8517      8515      8518      8519
      8517      8515      8518      8520      8517      8515      8518      8521
      8518      8521      8523      8524      8518      8521      8523      8528
      8519      8518      8521      8522      8519      8518      8521      8523
      8520      8518      8521      8522      8520      8518      8521      8523
      8521      8523      8524      8525      8521      8523      8524      8526
      8521      8523      8524      8527      8521      8523      8528      8529
      8521      8523      8528      8530      8521      8523      8528      8531
      8522      8521      8523      8524      8522      8521      8523      8528
      8523      8528      8531      8532      8523      8528      8531      8533
      8524      8523      8528      8529      8524      8523      8528      8530
      8524      8523      8528      8531      8525      8524      8523      8528
      8526      8524      8523      8528      8527      8524      8523      8528
      8529      8528      8531      8532      8529      8528      8531      8533
      8530      8528      8531      8532      8530      8528      8531      8533
      8534      8540      8543      8544      8534      8540      8543      8545
      8534      8540      8543      8546      8535      8534      8536      8537
      8535      8534      8536      8538      8535      8534      8536      8539
      8535      8534      8540      8541      8535      8534      8540      8542
      8535      8534      8540      8543      8536      8534      8540      8541
      8536      8534      8540      8542      8536      8534      8540      8543
      8537      8536      8534      8540      8538      8536      8534      8540
      8539      8536      8534      8540      8540      8543      8546      8547
      8540      8543      8546      8548      8540      8543      8546      8549
      8541      8540      8543      8544      8541      8540      8543      8545
      8541      8540      8543      8546      8542      8540      8543      8544
      8542      8540      8543      8545      8542      8540      8543      8546
      8543      8546      8549      8550      8543      8546      8549      8551
      8543      8546      8549      8555      8544      8543      8546      8547
      8544      8543      8546      8548      8544      8543      8546      8549
      8545      8543      8546      8547      8545      8543      8546      8548
      8545      8543      8546      8549      8546      8549      8551      8552
      8546      8549      8551      8553      8546      8549      8551      8554
      8546      8549      8555      8556      8546      8549      8555      8557
      8546      8549      8555      8558      8547      8546      8549      8550
      8547      8546      8549      8551      8547      8546      8549      8555
      8548      8546      8549      8550      8548      8546      8549      8551
      8548      8546      8549      8555      8550      8549      8551      8552
      8550      8549      8551      8553      8550      8549      8551      8554
      8550      8549      8555      8556      8550      8549      8555      8557
      8550      8549      8555      8558      8551      8549      8555      8556
      8551      8549      8555      8557      8551      8549      8555      8558
      8552      8551      8549      8555      8553      8551      8549      8555
      8554      8551      8549      8555      8559      8560      8575      8576
      8559      8560      8575      8577      8559      8560      8575      8581
      8560      8559      8563      8564      8560      8559      8563      8565
      8560      8559      8563      8566      8560      8559      8567      8568
      8560      8559      8567      8569      8560      8559      8567      8570
      8560      8559      8571      8572      8560      8559      8571      8573
      8560      8559      8571      8574      8560      8575      8581      8578
      8561      8560      8559      8563      8561      8560      8559      8567
      8561      8560      8559      8571      8561      8560      8575      8576
      8561      8560      8575      8577      8561      8560      8575      8581
      8562      8560      8559      8563      8562      8560      8559      8567
      8562      8560      8559      8571      8562      8560      8575      8576
      8562      8560      8575      8577      8562      8560      8575      8581
      8563      8559      8560      8575      8563      8559      8567      8568
      8563      8559      8567      8569      8563      8559      8567      8570
      8563      8559      8571      8572      8563      8559      8571      8573
      8563      8559      8571      8574      8564      8563      8559      8567
      8564      8563      8559      8571      8565      8563      8559      8567
      8565      8563      8559      8571      8566      8563      8559      8567
      8566      8563      8559      8571      8567      8559      8560      8575
      8567      8559      8571      8572      8567      8559      8571      8573
      8567      8559      8571      8574      8568      8567      8559      8571
      8569      8567      8559      8571      8570      8567      8559      8571
      8571      8559      8560      8575      8575      8581      8578      8579
      8575      8581      8578      8580      8575      8581      8578      8582
      8576      8575      8581      8578      8577      8575      8581      8578
      8578      8582      8583      8584      8578      8582      8583      8585
      8578      8582      8583      8586      8579      8578      8582      8583
      8580      8578      8582      8583      8581      8578      8582      8583
      8582      8583      8586      8587      8582      8583      8586      8588
      8582      8583      8586      8594      8583      8586      8588      8589
      8583      8586      8594      8595      8583      8586      8594      8596
      8583      8586      8594      8597      8584      8583      8586      8587
      8584      8583      8586      8588      8584      8583      8586      8594
      8585      8583      8586      8587      8585      8583      8586      8588
      8585      8583      8586      8594      8586      8588      8589      8590
      8586      8588      8589      8591      8586      8594      8597      8598
      8587      8586      8588      8589      8587      8586      8594      8595
      8587      8586      8594      8596      8587      8586      8594      8597
      8588      8586      8594      8595      8588      8586      8594      8596
      8588      8586      8594      8597      8588      8589      8591      8592
      8588      8589      8591      8593      8588      8589      8591      8603
      8589      8588      8586      8594      8589      8591      8603      8604
      8589      8591      8603      8605      8589      8591      8603      8606
      8590      8589      8591      8592      8590      8589      8591      8593
      8590      8589      8591      8603      8591      8603      8606      8607
      8591      8603      8606      8608      8591      8603      8606      8609
      8592      8591      8603      8604      8592      8591      8603      8605
      8592      8591      8603      8606      8593      8591      8603      8604
      8593      8591      8603      8605      8593      8591      8603      8606
      8594      8597      8598      8599      8594      8597      8598      8600
      8595      8594      8597      8598      8596      8594      8597      8598
      8597      8598      8600      8601      8597      8598      8600      8602
      8597      8598      8600      8650      8598      8600      8650      8651
      8598      8600      8650      8652      8598      8600      8650      8653
      8599      8598      8600      8601      8599      8598      8600      8602
      8599      8598      8600      8650      8600      8650      8653      8654
      8600      8650      8653      8655      8600      8650      8653      8656
      8601      8600      8650      8651      8601      8600      8650      8652
      8601      8600      8650      8653      8602      8600      8650      8651
      8602      8600      8650      8652      8602      8600      8650      8653
      8603      8606      8609      8610      8603      8606      8609      8611
      8604      8603      8606      8607      8604      8603      8606      8608
      8604      8603      8606      8609      8605      8603      8606      8607
      8605      8603      8606      8608      8605      8603      8606      8609
      8606      8609      8611      8612      8606      8609      8611      8613
      8607      8606      8609      8610      8607      8606      8609      8611
      8608      8606      8609      8610      8608      8606      8609      8611
      8609      8611      8613      8614      8609      8611      8613      8615
      8609      8611      8613      8616      8610      8609      8611      8612
      8610      8609      8611      8613      8611      8613      8616      8617
      8611      8613      8616      8618      8612      8611      8613      8614
      8612      8611      8613      8615      8612      8611      8613      8616
      8613      8616      8618      8619      8613      8616      8618      8620
      8614      8613      8616      8617      8614      8613      8616      8618
      8615      8613      8616      8617      8615      8613      8616      8618
      8616      8618      8620      8621      8616      8618      8620      8622
      8616      8618      8620      8623      8617      8616      8618      8619
      8617      8616      8618      8620      8618      8620      8623      8624
      8618      8620      8623      8625      8619      8618      8620      8621
      8619      8618      8620      8622      8619      8618      8620      8623
      8620      8623      8625      8626      8620      8623      8625      8627
      8621      8620      8623      8624      8621      8620      8623      8625
      8622      8620      8623      8624      8622      8620      8623      8625
      8623      8625      8627      8628      8623      8625      8627      8629
      8623      8625      8627      8630      8624      8623      8625      8626
      8624      8623      8625      8627      8625      8627      8630      8631
      8625      8627      8630      8632      8626      8625      8627      8628
      8626      8625      8627      8629      8626      8625      8627      8630
      8627      8630      8632      8633      8627      8630      8632      8634
      8628      8627      8630      8631      8628      8627      8630      8632
      8629      8627      8630      8631      8629      8627      8630      8632
      8630      8632      8634      8635      8630      8632      8634      8636
      8630      8632      8634      8637      8631      8630      8632      8633
      8631      8630      8632      8634      8632      8634      8637      8638
      8632      8634      8637      8639      8632      8634      8637      8640
      8633      8632      8634      8635      8633      8632      8634      8636
      8633      8632      8634      8637      8634      8637      8640      8641
      8634      8637      8640      8642      8634      8637      8640      8643
      8635      8634      8637      8638      8635      8634      8637      8639
      8635      8634      8637      8640      8636      8634      8637      8638
      8636      8634      8637      8639      8636      8634      8637      8640
      8637      8640      8643      8644      8637      8640      8643      8645
      8637      8640      8643      8646      8638      8637      8640      8641
      8638      8637      8640      8642      8638      8637      8640      8643
      8639      8637      8640      8641      8639      8637      8640      8642
      8639      8637      8640      8643      8640      8643      8646      8647
      8640      8643      8646      8648      8640      8643      8646      8649
      8641      8640      8643      8644      8641      8640      8643      8645
      8641      8640      8643      8646      8642      8640      8643      8644
      8642      8640      8643      8645      8642      8640      8643      8646
      8644      8643      8646      8647      8644      8643      8646      8648
      8644      8643      8646      8649      8645      8643      8646      8647
      8645      8643      8646      8648      8645      8643      8646      8649
      8650      8653      8656      8657      8650      8653      8656      8658
      8650      8653      8656      8659      8651      8650      8653      8654
      8651      8650      8653      8655      8651      8650      8653      8656
      8652      8650      8653      8654      8652      8650      8653      8655
      8652      8650      8653      8656      8653      8656      8659      8660
      8653      8656      8659      8661      8653      8656      8659      8662
      8654      8653      8656      8657      8654      8653      8656      8658
      8654      8653      8656      8659      8655      8653      8656      8657
      8655      8653      8656      8658      8655      8653      8656      8659
      8656      8659      8662      8663      8656      8659      8662      8664
      8656      8659      8662      8665      8657      8656      8659      8660
      8657      8656      8659      8661      8657      8656      8659      8662
      8658      8656      8659      8660      8658      8656      8659      8661
      8658      8656      8659      8662      8659      8662      8665      8666
      8659      8662      8665      8667      8659      8662      8665      8668
      8660      8659      8662      8663      8660      8659      8662      8664
      8660      8659      8662      8665      8661      8659      8662      8663
      8661      8659      8662      8664      8661      8659      8662      8665
      8662      8665      8668      8669      8662      8665      8668      8670
      8662      8665      8668      8671      8663      8662      8665      8666
      8663      8662      8665      8667      8663      8662      8665      8668
      8664      8662      8665      8666      8664      8662      8665      8667
      8664      8662      8665      8668      8665      8668      8671      8672
      8665      8668      8671      8673      8665      8668      8671      8674
      8666      8665      8668      8669      8666      8665      8668      8670
      8666      8665      8668      8671      8667      8665      8668      8669
      8667      8665      8668      8670      8667      8665      8668      8671
      8668      8671      8674      8675      8668      8671      8674      8676
      8668      8671      8674      8677      8669      8668      8671      8672
      8669      8668      8671      8673      8669      8668      8671      8674
      8670      8668      8671      8672      8670      8668      8671      8673
      8670      8668      8671      8674      8671      8674      8677      8678
      8671      8674      8677      8679      8671      8674      8677      8680
      8672      8671      8674      8675      8672      8671      8674      8676
      8672      8671      8674      8677      8673      8671      8674      8675
      8673      8671      8674      8676      8673      8671      8674      8677
      8674      8677      8680      8681      8674      8677      8680      8682
      8674      8677      8680      8683      8675      8674      8677      8678
      8675      8674      8677      8679      8675      8674      8677      8680
      8676      8674      8677      8678      8676      8674      8677      8679
      8676      8674      8677      8680      8677      8680      8683      8684
      8677      8680      8683      8685      8677      8680      8683      8686
      8678      8677      8680      8681      8678      8677      8680      8682
      8678      8677      8680      8683      8679      8677      8680      8681
      8679      8677      8680      8682      8679      8677      8680      8683
      8680      8683      8686      8687      8680      8683      8686      8688
      8680      8683      8686      8689      8681      8680      8683      8684
      8681      8680      8683      8685      8681      8680      8683      8686
      8682      8680      8683      8684      8682      8680      8683      8685
      8682      8680      8683      8686      8683      8686      8689      8690
      8683      8686      8689      8691      8683      8686      8689      8692
      8684      8683      8686      8687      8684      8683      8686      8688
      8684      8683      8686      8689      8685      8683      8686      8687
      8685      8683      8686      8688      8685      8683      8686      8689
      8686      8689      8692      8693      8686      8689      8692      8694
      8686      8689      8692      8695      8687      8686      8689      8690
      8687      8686      8689      8691      8687      8686      8689      8692
      8688      8686      8689      8690      8688      8686      8689      8691
      8688      8686      8689      8692      8689      8692      8695      8696
      8689      8692      8695      8697      8689      8692      8695      8698
      8690      8689      8692      8693      8690      8689      8692      8694
      8690      8689      8692      8695      8691      8689      8692      8693
      8691      8689      8692      8694      8691      8689      8692      8695
      8693      8692      8695      8696      8693      8692      8695      8697
      8693      8692      8695      8698      8694      8692      8695      8696
      8694      8692      8695      8697      8694      8692      8695      8698
      8699      8712      8715      8716      8699      8712      8715      8717
      8699      8712      8715      8722      8700      8699      8704      8705
      8700      8699      8704      8706      8700      8699      8704      8707
      8700      8699      8708      8709      8700      8699      8708      8710
      8700      8699      8708      8711      8700      8699      8712      8713
      8700      8699      8712      8714      8700      8699      8712      8715
      8701      8700      8699      8704      8701      8700      8699      8708
      8701      8700      8699      8712      8702      8700      8699      8704
      8702      8700      8699      8708      8702      8700      8699      8712
      8703      8700      8699      8704      8703      8700      8699      8708
      8703      8700      8699      8712      8704      8699      8708      8709
      8704      8699      8708      8710      8704      8699      8708      8711
      8704      8699      8712      8713      8704      8699      8712      8714
      8704      8699      8712      8715      8705      8704      8699      8708
      8705      8704      8699      8712      8706      8704      8699      8708
      8706      8704      8699      8712      8707      8704      8699      8708
      8707      8704      8699      8712      8708      8699      8712      8713
      8708      8699      8712      8714      8708      8699      8712      8715
      8709      8708      8699      8712      8710      8708      8699      8712
      8711      8708      8699      8712      8712      8715      8722      8718
      8713      8712      8715      8716      8713      8712      8715      8717
      8713      8712      8715      8722      8714      8712      8715      8716
      8714      8712      8715      8717      8714      8712      8715      8722
      8715      8722      8718      8719      8715      8722      8718      8720
      8715      8722      8718      8721      8716      8715      8722      8718
      8717      8715      8722      8718      8718      8721      8723      8724
      8718      8721      8723      8725      8718      8721      8723      8728
      8719      8718      8721      8723      8720      8718      8721      8723
      8721      8723      8728      8726      8721      8723      8728      8729
      8721      8723      8728      8730      8722      8718      8721      8723
      8723      8728      8726      8727      8723      8728      8726      8778
      8723      8728      8730      8731      8723      8728      8730      8732
      8723      8728      8730      8734      8724      8723      8728      8726
      8724      8723      8728      8729      8724      8723      8728      8730
      8725      8723      8728      8726      8725      8723      8728      8729
      8725      8723      8728      8730      8726      8728      8730      8731
      8726      8728      8730      8732      8726      8728      8730      8734
      8726      8778      8780      8781      8726      8778      8780      8782
      8726      8778      8780      8783      8727      8726      8728      8729
      8727      8726      8728      8730      8727      8726      8778      8779
      8727      8726      8778      8780      8728      8726      8778      8779
      8728      8726      8778      8780      8728      8730      8732      8733
      8728      8730      8734      8735      8728      8730      8734      8736
      8729      8728      8726      8778      8729      8728      8730      8731
      8729      8728      8730      8732      8729      8728      8730      8734
      8730      8728      8726      8778      8730      8734      8736      8737
      8730      8734      8736      8738      8731      8730      8732      8733
      8731      8730      8734      8735      8731      8730      8734      8736
      8732      8730      8734      8735      8732      8730      8734      8736
      8733      8732      8730      8734      8734      8736      8738      8739
      8734      8736      8738      8740      8734      8736      8738      8741
      8735      8734      8736      8737      8735      8734      8736      8738
      8736      8738      8741      8742      8736      8738      8741      8743
      8736      8738      8741      8744      8737      8736      8738      8739
      8737      8736      8738      8740      8737      8736      8738      8741
      8738      8741      8744      8745      8738      8741      8744      8746
      8738      8741      8744      8747      8739      8738      8741      8742
      8739      8738      8741      8743      8739      8738      8741      8744
      8740      8738      8741      8742      8740      8738      8741      8743
      8740      8738      8741      8744      8741      8744      8747      8748
      8741      8744      8747      8749      8741      8744      8747      8750
      8742      8741      8744      8745      8742      8741      8744      8746
      8742      8741      8744      8747      8743      8741      8744      8745
      8743      8741      8744      8746      8743      8741      8744      8747
      8744      8747      8750      8751      8744      8747      8750      8752
      8744      8747      8750      8753      8745      8744      8747      8748
      8745      8744      8747      8749      8745      8744      8747      8750
      8746      8744      8747      8748      8746      8744      8747      8749
      8746      8744      8747      8750      8747      8750      8753      8754
      8747      8750      8753      8755      8747      8750      8753      8756
      8748      8747      8750      8751      8748      8747      8750      8752
      8748      8747      8750      8753      8749      8747      8750      8751
      8749      8747      8750      8752      8749      8747      8750      8753
      8750      8753      8756      8757      8750      8753      8756      8758
      8750      8753      8756      8759      8751      8750      8753      8754
      8751      8750      8753      8755      8751      8750      8753      8756
      8752      8750      8753      8754      8752      8750      8753      8755
      8752      8750      8753      8756      8753      8756      8759      8760
      8753      8756      8759      8761      8753      8756      8759      8762
      8754      8753      8756      8757      8754      8753      8756      8758
      8754      8753      8756      8759      8755      8753      8756      8757
      8755      8753      8756      8758      8755      8753      8756      8759
      8756      8759      8762      8763      8756      8759      8762      8764
      8756      8759      8762      8765      8757      8756      8759      8760
      8757      8756      8759      8761      8757      8756      8759      8762
      8758      8756      8759      8760      8758      8756      8759      8761
      8758      8756      8759      8762      8759      8762      8765      8766
      8759      8762      8765      8767      8759      8762      8765      8768
      8760      8759      8762      8763      8760      8759      8762      8764
      8760      8759      8762      8765      8761      8759      8762      8763
      8761      8759      8762      8764      8761      8759      8762      8765
      8762      8765      8768      8769      8762      8765      8768      8770
      8762      8765      8768      8771      8763      8762      8765      8766
      8763      8762      8765      8767      8763      8762      8765      8768
      8764      8762      8765      8766      8764      8762      8765      8767
      8764      8762      8765      8768      8765      8768      8771      8772
      8765      8768      8771      8773      8765      8768      8771      8774
      8766      8765      8768      8769      8766      8765      8768      8770
      8766      8765      8768      8771      8767      8765      8768      8769
      8767      8765      8768      8770      8767      8765      8768      8771
      8768      8771      8774      8775      8768      8771      8774      8776
      8768      8771      8774      8777      8769      8768      8771      8772
      8769      8768      8771      8773      8769      8768      8771      8774
      8770      8768      8771      8772      8770      8768      8771      8773
      8770      8768      8771      8774      8772      8771      8774      8775
      8772      8771      8774      8776      8772      8771      8774      8777
      8773      8771      8774      8775      8773      8771      8774      8776
      8773      8771      8774      8777      8778      8780      8783      8784
      8778      8780      8783      8785      8778      8780      8783      8786
      8779      8778      8780      8781      8779      8778      8780      8782
      8779      8778      8780      8783      8780      8783      8786      8787
      8780      8783      8786      8788      8780      8783      8786      8789
      8781      8780      8783      8784      8781      8780      8783      8785
      8781      8780      8783      8786      8782      8780      8783      8784
      8782      8780      8783      8785      8782      8780      8783      8786
      8783      8786      8789      8790      8783      8786      8789      8791
      8783      8786      8789      8792      8784      8783      8786      8787
      8784      8783      8786      8788      8784      8783      8786      8789
      8785      8783      8786      8787      8785      8783      8786      8788
      8785      8783      8786      8789      8786      8789      8792      8793
      8786      8789      8792      8794      8786      8789      8792      8795
      8787      8786      8789      8790      8787      8786      8789      8791
      8787      8786      8789      8792      8788      8786      8789      8790
      8788      8786      8789      8791      8788      8786      8789      8792
      8789      8792      8795      8796      8789      8792      8795      8797
      8789      8792      8795      8798      8790      8789      8792      8793
      8790      8789      8792      8794      8790      8789      8792      8795
      8791      8789      8792      8793      8791      8789      8792      8794
      8791      8789      8792      8795      8792      8795      8798      8799
      8792      8795      8798      8800      8792      8795      8798      8801
      8793      8792      8795      8796      8793      8792      8795      8797
      8793      8792      8795      8798      8794      8792      8795      8796
      8794      8792      8795      8797      8794      8792      8795      8798
      8795      8798      8801      8802      8795      8798      8801      8803
      8796      8795      8798      8799      8796      8795      8798      8800
      8796      8795      8798      8801      8797      8795      8798      8799
      8797      8795      8798      8800      8797      8795      8798      8801
      8798      8801      8803      8804      8798      8801      8803      8805
      8799      8798      8801      8802      8799      8798      8801      8803
      8800      8798      8801      8802      8800      8798      8801      8803
      8801      8803      8805      8806      8801      8803      8805      8807
      8801      8803      8805      8808      8802      8801      8803      8804
      8802      8801      8803      8805      8803      8805      8808      8809
      8803      8805      8808      8810      8803      8805      8808      8811
      8804      8803      8805      8806      8804      8803      8805      8807
      8804      8803      8805      8808      8805      8808      8811      8812
      8805      8808      8811      8813      8805      8808      8811      8814
      8806      8805      8808      8809      8806      8805      8808      8810
      8806      8805      8808      8811      8807      8805      8808      8809
      8807      8805      8808      8810      8807      8805      8808      8811
      8808      8811      8814      8815      8808      8811      8814      8816
      8808      8811      8814      8817      8809      8808      8811      8812
      8809      8808      8811      8813      8809      8808      8811      8814
      8810      8808      8811      8812      8810      8808      8811      8813
      8810      8808      8811      8814      8811      8814      8817      8818
      8811      8814      8817      8819      8811      8814      8817      8820
      8812      8811      8814      8815      8812      8811      8814      8816
      8812      8811      8814      8817      8813      8811      8814      8815
      8813      8811      8814      8816      8813      8811      8814      8817
      8814      8817      8820      8821      8814      8817      8820      8822
      8814      8817      8820      8823      8815      8814      8817      8818
      8815      8814      8817      8819      8815      8814      8817      8820
      8816      8814      8817      8818      8816      8814      8817      8819
      8816      8814      8817      8820      8817      8820      8823      8824
      8817      8820      8823      8825      8817      8820      8823      8826
      8818      8817      8820      8821      8818      8817      8820      8822
      8818      8817      8820      8823      8819      8817      8820      8821
      8819      8817      8820      8822      8819      8817      8820      8823
      8820      8823      8826      8827      8820      8823      8826      8828
      8820      8823      8826      8829      8821      8820      8823      8824
      8821      8820      8823      8825      8821      8820      8823      8826
      8822      8820      8823      8824      8822      8820      8823      8825
      8822      8820      8823      8826      8824      8823      8826      8827
      8824      8823      8826      8828      8824      8823      8826      8829
      8825      8823      8826      8827      8825      8823      8826      8828
      8825      8823      8826      8829      8830      8834      8836      8837
      8830      8834      8836      8838      8830      8834      8839      8840
      8830      8834      8839      8841      8830      8834      8839      8845
      8831      8830      8834      8835      8831      8830      8834      8836
      8831      8830      8834      8839      8832      8830      8834      8835
      8832      8830      8834      8836      8832      8830      8834      8839
      8833      8830      8834      8835      8833      8830      8834      8836
      8833      8830      8834      8839      8834      8839      8845      8842
      8835      8834      8836      8837      8835      8834      8836      8838
      8835      8834      8839      8840      8835      8834      8839      8841
      8835      8834      8839      8845      8836      8834      8839      8840
      8836      8834      8839      8841      8836      8834      8839      8845
      8837      8836      8834      8839      8838      8836      8834      8839
      8839      8845      8842      8843      8839      8845      8842      8844
      8839      8845      8842      8846      8840      8839      8845      8842
      8841      8839      8845      8842      8842      8846      8847      8848
      8842      8846      8847      8849      8842      8846      8847      8850
      8843      8842      8846      8847      8844      8842      8846      8847
      8845      8842      8846      8847      8846      8847      8850      8851
      8846      8847      8850      8852      8846      8847      8850      8858
      8847      8850      8852      8853      8847      8850      8858      8859
      8847      8850      8858      8860      8847      8850      8858      8861
      8848      8847      8850      8851      8848      8847      8850      8852
      8848      8847      8850      8858      8849      8847      8850      8851
      8849      8847      8850      8852      8849      8847      8850      8858
      8850      8852      8853      8854      8850      8852      8853      8855
      8850      8858      8861      8862      8851      8850      8852      8853
      8851      8850      8858      8859      8851      8850      8858      8860
      8851      8850      8858      8861      8852      8850      8858      8859
      8852      8850      8858      8860      8852      8850      8858      8861
      8852      8853      8855      8856      8852      8853      8855      8857
      8852      8853      8855      8867      8853      8852      8850      8858
      8853      8855      8867      8868      8853      8855      8867      8869
      8853      8855      8867      8870      8854      8853      8855      8856
      8854      8853      8855      8857      8854      8853      8855      8867
      8855      8867      8870      8871      8855      8867      8870      8872
      8855      8867      8870      8873      8856      8855      8867      8868
      8856      8855      8867      8869      8856      8855      8867      8870
      8857      8855      8867      8868      8857      8855      8867      8869
      8857      8855      8867      8870      8858      8861      8862      8863
      8858      8861      8862      8864      8859      8858      8861      8862
      8860      8858      8861      8862      8861      8862      8864      8865
      8861      8862      8864      8866      8861      8862      8864      8914
      8862      8864      8914      8915      8862      8864      8914      8916
      8862      8864      8914      8917      8863      8862      8864      8865
      8863      8862      8864      8866      8863      8862      8864      8914
      8864      8914      8917      8918      8864      8914      8917      8919
      8864      8914      8917      8920      8865      8864      8914      8915
      8865      8864      8914      8916      8865      8864      8914      8917
      8866      8864      8914      8915      8866      8864      8914      8916
      8866      8864      8914      8917      8867      8870      8873      8874
      8867      8870      8873      8875      8868      8867      8870      8871
      8868      8867      8870      8872      8868      8867      8870      8873
      8869      8867      8870      8871      8869      8867      8870      8872
      8869      8867      8870      8873      8870      8873      8875      8876
      8870      8873      8875      8877      8871      8870      8873      8874
      8871      8870      8873      8875      8872      8870      8873      8874
      8872      8870      8873      8875      8873      8875      8877      8878
      8873      8875      8877      8879      8873      8875      8877      8880
      8874      8873      8875      8876      8874      8873      8875      8877
      8875      8877      8880      8881      8875      8877      8880      8882
      8876      8875      8877      8878      8876      8875      8877      8879
      8876      8875      8877      8880      8877      8880      8882      8883
      8877      8880      8882      8884      8878      8877      8880      8881
      8878      8877      8880      8882      8879      8877      8880      8881
      8879      8877      8880      8882      8880      8882      8884      8885
      8880      8882      8884      8886      8880      8882      8884      8887
      8881      8880      8882      8883      8881      8880      8882      8884
      8882      8884      8887      8888      8882      8884      8887      8889
      8883      8882      8884      8885      8883      8882      8884      8886
      8883      8882      8884      8887      8884      8887      8889      8890
      8884      8887      8889      8891      8885      8884      8887      8888
      8885      8884      8887      8889      8886      8884      8887      8888
      8886      8884      8887      8889      8887      8889      8891      8892
      8887      8889      8891      8893      8887      8889      8891      8894
      8888      8887      8889      8890      8888      8887      8889      8891
      8889      8891      8894      8895      8889      8891      8894      8896
      8890      8889      8891      8892      8890      8889      8891      8893
      8890      8889      8891      8894      8891      8894      8896      8897
      8891      8894      8896      8898      8892      8891      8894      8895
      8892      8891      8894      8896      8893      8891      8894      8895
      8893      8891      8894      8896      8894      8896      8898      8899
      8894      8896      8898      8900      8894      8896      8898      8901
      8895      8894      8896      8897      8895      8894      8896      8898
      8896      8898      8901      8902      8896      8898      8901      8903
      8896      8898      8901      8904      8897      8896      8898      8899
      8897      8896      8898      8900      8897      8896      8898      8901
      8898      8901      8904      8905      8898      8901      8904      8906
      8898      8901      8904      8907      8899      8898      8901      8902
      8899      8898      8901      8903      8899      8898      8901      8904
      8900      8898      8901      8902      8900      8898      8901      8903
      8900      8898      8901      8904      8901      8904      8907      8908
      8901      8904      8907      8909      8901      8904      8907      8910
      8902      8901      8904      8905      8902      8901      8904      8906
      8902      8901      8904      8907      8903      8901      8904      8905
      8903      8901      8904      8906      8903      8901      8904      8907
      8904      8907      8910      8911      8904      8907      8910      8912
      8904      8907      8910      8913      8905      8904      8907      8908
      8905      8904      8907      8909      8905      8904      8907      8910
      8906      8904      8907      8908      8906      8904      8907      8909
      8906      8904      8907      8910      8908      8907      8910      8911
      8908      8907      8910      8912      8908      8907      8910      8913
      8909      8907      8910      8911      8909      8907      8910      8912
      8909      8907      8910      8913      8914      8917      8920      8921
      8914      8917      8920      8922      8914      8917      8920      8923
      8915      8914      8917      8918      8915      8914      8917      8919
      8915      8914      8917      8920      8916      8914      8917      8918
      8916      8914      8917      8919      8916      8914      8917      8920
      8917      8920      8923      8924      8917      8920      8923      8925
      8917      8920      8923      8926      8918      8917      8920      8921
      8918      8917      8920      8922      8918      8917      8920      8923
      8919      8917      8920      8921      8919      8917      8920      8922
      8919      8917      8920      8923      8920      8923      8926      8927
      8920      8923      8926      8928      8920      8923      8926      8929
      8921      8920      8923      8924      8921      8920      8923      8925
      8921      8920      8923      8926      8922      8920      8923      8924
      8922      8920      8923      8925      8922      8920      8923      8926
      8923      8926      8929      8930      8923      8926      8929      8931
      8923      8926      8929      8932      8924      8923      8926      8927
      8924      8923      8926      8928      8924      8923      8926      8929
      8925      8923      8926      8927      8925      8923      8926      8928
      8925      8923      8926      8929      8926      8929      8932      8933
      8926      8929      8932      8934      8926      8929      8932      8935
      8927      8926      8929      8930      8927      8926      8929      8931
      8927      8926      8929      8932      8928      8926      8929      8930
      8928      8926      8929      8931      8928      8926      8929      8932
      8929      8932      8935      8936      8929      8932      8935      8937
      8929      8932      8935      8938      8930      8929      8932      8933
      8930      8929      8932      8934      8930      8929      8932      8935
      8931      8929      8932      8933      8931      8929      8932      8934
      8931      8929      8932      8935      8932      8935      8938      8939
      8932      8935      8938      8940      8932      8935      8938      8941
      8933      8932      8935      8936      8933      8932      8935      8937
      8933      8932      8935      8938      8934      8932      8935      8936
      8934      8932      8935      8937      8934      8932      8935      8938
      8935      8938      8941      8942      8935      8938      8941      8943
      8935      8938      8941      8944      8936      8935      8938      8939
      8936      8935      8938      8940      8936      8935      8938      8941
      8937      8935      8938      8939      8937      8935      8938      8940
      8937      8935      8938      8941      8938      8941      8944      8945
      8938      8941      8944      8946      8938      8941      8944      8947
      8939      8938      8941      8942      8939      8938      8941      8943
      8939      8938      8941      8944      8940      8938      8941      8942
      8940      8938      8941      8943      8940      8938      8941      8944
      8941      8944      8947      8948      8941      8944      8947      8949
      8941      8944      8947      8950      8942      8941      8944      8945
      8942      8941      8944      8946      8942      8941      8944      8947
      8943      8941      8944      8945      8943      8941      8944      8946
      8943      8941      8944      8947      8944      8947      8950      8951
      8944      8947      8950      8952      8944      8947      8950      8953
      8945      8944      8947      8948      8945      8944      8947      8949
      8945      8944      8947      8950      8946      8944      8947      8948
      8946      8944      8947      8949      8946      8944      8947      8950
      8947      8950      8953      8954      8947      8950      8953      8955
      8947      8950      8953      8956      8948      8947      8950      8951
      8948      8947      8950      8952      8948      8947      8950      8953
      8949      8947      8950      8951      8949      8947      8950      8952
      8949      8947      8950      8953      8950      8953      8956      8957
      8950      8953      8956      8958      8950      8953      8956      8959
      8951      8950      8953      8954      8951      8950      8953      8955
      8951      8950      8953      8956      8952      8950      8953      8954
      8952      8950      8953      8955      8952      8950      8953      8956
      8953      8956      8959      8960      8953      8956      8959      8961
      8953      8956      8959      8962      8954      8953      8956      8957
      8954      8953      8956      8958      8954      8953      8956      8959
      8955      8953      8956      8957      8955      8953      8956      8958
      8955      8953      8956      8959      8957      8956      8959      8960
      8957      8956      8959      8961      8957      8956      8959      8962
      8958      8956      8959      8960      8958      8956      8959      8961
      8958      8956      8959      8962      8963      8967      8969      8970
      8963      8967      8969      8971      8963      8967      8972      8973
      8963      8967      8972      8974      8963      8967      8972      8978
      8964      8963      8967      8968      8964      8963      8967      8969
      8964      8963      8967      8972      8965      8963      8967      8968
      8965      8963      8967      8969      8965      8963      8967      8972
      8966      8963      8967      8968      8966      8963      8967      8969
      8966      8963      8967      8972      8967      8972      8978      8975
      8968      8967      8969      8970      8968      8967      8969      8971
      8968      8967      8972      8973      8968      8967      8972      8974
      8968      8967      8972      8978      8969      8967      8972      8973
      8969      8967      8972      8974      8969      8967      8972      8978
      8970      8969      8967      8972      8971      8969      8967      8972
      8972      8978      8975      8976      8972      8978      8975      8977
      8972      8978      8975      8979      8973      8972      8978      8975
      8974      8972      8978      8975      8975      8979      8980      8981
      8975      8979      8980      8982      8975      8979      8980      8983
      8976      8975      8979      8980      8977      8975      8979      8980
      8978      8975      8979      8980      8979      8980      8983      8984
      8979      8980      8983      8985      8979      8980      8983      8991
      8980      8983      8985      8986      8980      8983      8991      8992
      8980      8983      8991      8993      8980      8983      8991      8994
      8981      8980      8983      8984      8981      8980      8983      8985
      8981      8980      8983      8991      8982      8980      8983      8984
      8982      8980      8983      8985      8982      8980      8983      8991
      8983      8985      8986      8987      8983      8985      8986      8988
      8983      8991      8994      8995      8984      8983      8985      8986
      8984      8983      8991      8992      8984      8983      8991      8993
      8984      8983      8991      8994      8985      8983      8991      8992
      8985      8983      8991      8993      8985      8983      8991      8994
      8985      8986      8988      8989      8985      8986      8988      8990
      8985      8986      8988      9000      8986      8985      8983      8991
      8986      8988      9000      9001      8986      8988      9000      9002
      8986      8988      9000      9003      8987      8986      8988      8989
      8987      8986      8988      8990      8987      8986      8988      9000
      8988      9000      9003      9004      8988      9000      9003      9005
      8988      9000      9003      9006      8989      8988      9000      9001
      8989      8988      9000      9002      8989      8988      9000      9003
      8990      8988      9000      9001      8990      8988      9000      9002
      8990      8988      9000      9003      8991      8994      8995      8996
      8991      8994      8995      8997      8992      8991      8994      8995
      8993      8991      8994      8995      8994      8995      8997      8998
      8994      8995      8997      8999      8994      8995      8997      9047
      8995      8997      9047      9048      8995      8997      9047      9049
      8995      8997      9047      9050      8996      8995      8997      8998
      8996      8995      8997      8999      8996      8995      8997      9047
      8997      9047      9050      9051      8997      9047      9050      9052
      8997      9047      9050      9053      8998      8997      9047      9048
      8998      8997      9047      9049      8998      8997      9047      9050
      8999      8997      9047      9048      8999      8997      9047      9049
      8999      8997      9047      9050      9000      9003      9006      9007
      9000      9003      9006      9008      9001      9000      9003      9004
      9001      9000      9003      9005      9001      9000      9003      9006
      9002      9000      9003      9004      9002      9000      9003      9005
      9002      9000      9003      9006      9003      9006      9008      9009
      9003      9006      9008      9010      9004      9003      9006      9007
      9004      9003      9006      9008      9005      9003      9006      9007
      9005      9003      9006      9008      9006      9008      9010      9011
      9006      9008      9010      9012      9006      9008      9010      9013
      9007      9006      9008      9009      9007      9006      9008      9010
      9008      9010      9013      9014      9008      9010      9013      9015
      9009      9008      9010      9011      9009      9008      9010      9012
      9009      9008      9010      9013      9010      9013      9015      9016
      9010      9013      9015      9017      9011      9010      9013      9014
      9011      9010      9013      9015      9012      9010      9013      9014
      9012      9010      9013      9015      9013      9015      9017      9018
      9013      9015      9017      9019      9013      9015      9017      9020
      9014      9013      9015      9016      9014      9013      9015      9017
      9015      9017      9020      9021      9015      9017      9020      9022
      9016      9015      9017      9018      9016      9015      9017      9019
      9016      9015      9017      9020      9017      9020      9022      9023
      9017      9020      9022      9024      9018      9017      9020      9021
      9018      9017      9020      9022      9019      9017      9020      9021
      9019      9017      9020      9022      9020      9022      9024      9025
      9020      9022      9024      9026      9020      9022      9024      9027
      9021      9020      9022      9023      9021      9020      9022      9024
      9022      9024      9027      9028      9022      9024      9027      9029
      9023      9022      9024      9025      9023      9022      9024      9026
      9023      9022      9024      9027      9024      9027      9029      9030
      9024      9027      9029      9031      9025      9024      9027      9028
      9025      9024      9027      9029      9026      9024      9027      9028
      9026      9024      9027      9029      9027      9029      9031      9032
      9027      9029      9031      9033      9027      9029      9031      9034
      9028      9027      9029      9030      9028      9027      9029      9031
      9029      9031      9034      9035      9029      9031      9034      9036
      9029      9031      9034      9037      9030      9029      9031      9032
      9030      9029      9031      9033      9030      9029      9031      9034
      9031      9034      9037      9038      9031      9034      9037      9039
      9031      9034      9037      9040      9032      9031      9034      9035
      9032      9031      9034      9036      9032      9031      9034      9037
      9033      9031      9034      9035      9033      9031      9034      9036
      9033      9031      9034      9037      9034      9037      9040      9041
      9034      9037      9040      9042      9034      9037      9040      9043
      9035      9034      9037      9038      9035      9034      9037      9039
      9035      9034      9037      9040      9036      9034      9037      9038
      9036      9034      9037      9039      9036      9034      9037      9040
      9037      9040      9043      9044      9037      9040      9043      9045
      9037      9040      9043      9046      9038      9037      9040      9041
      9038      9037      9040      9042      9038      9037      9040      9043
      9039      9037      9040      9041      9039      9037      9040      9042
      9039      9037      9040      9043      9041      9040      9043      9044
      9041      9040      9043      9045      9041      9040      9043      9046
      9042      9040      9043      9044      9042      9040      9043      9045
      9042      9040      9043      9046      9047      9050      9053      9054
      9047      9050      9053      9055      9047      9050      9053      9056
      9048      9047      9050      9051      9048      9047      9050      9052
      9048      9047      9050      9053      9049      9047      9050      9051
      9049      9047      9050      9052      9049      9047      9050      9053
      9050      9053      9056      9057      9050      9053      9056      9058
      9050      9053      9056      9059      9051      9050      9053      9054
      9051      9050      9053      9055      9051      9050      9053      9056
      9052      9050      9053      9054      9052      9050      9053      9055
      9052      9050      9053      9056      9053      9056      9059      9060
      9053      9056      9059      9061      9053      9056      9059      9062
      9054      9053      9056      9057      9054      9053      9056      9058
      9054      9053      9056      9059      9055      9053      9056      9057
      9055      9053      9056      9058      9055      9053      9056      9059
      9056      9059      9062      9063      9056      9059      9062      9064
      9056      9059      9062      9065      9057      9056      9059      9060
      9057      9056      9059      9061      9057      9056      9059      9062
      9058      9056      9059      9060      9058      9056      9059      9061
      9058      9056      9059      9062      9059      9062      9065      9066
      9059      9062      9065      9067      9059      9062      9065      9068
      9060      9059      9062      9063      9060      9059      9062      9064
      9060      9059      9062      9065      9061      9059      9062      9063
      9061      9059      9062      9064      9061      9059      9062      9065
      9062      9065      9068      9069      9062      9065      9068      9070
      9062      9065      9068      9071      9063      9062      9065      9066
      9063      9062      9065      9067      9063      9062      9065      9068
      9064      9062      9065      9066      9064      9062      9065      9067
      9064      9062      9065      9068      9065      9068      9071      9072
      9065      9068      9071      9073      9065      9068      9071      9074
      9066      9065      9068      9069      9066      9065      9068      9070
      9066      9065      9068      9071      9067      9065      9068      9069
      9067      9065      9068      9070      9067      9065      9068      9071
      9068      9071      9074      9075      9068      9071      9074      9076
      9068      9071      9074      9077      9069      9068      9071      9072
      9069      9068      9071      9073      9069      9068      9071      9074
      9070      9068      9071      9072      9070      9068      9071      9073
      9070      9068      9071      9074      9071      9074      9077      9078
      9071      9074      9077      9079      9071      9074      9077      9080
      9072      9071      9074      9075      9072      9071      9074      9076
      9072      9071      9074      9077      9073      9071      9074      9075
      9073      9071      9074      9076      9073      9071      9074      9077
      9074      9077      9080      9081      9074      9077      9080      9082
      9074      9077      9080      9083      9075      9074      9077      9078
      9075      9074      9077      9079      9075      9074      9077      9080
      9076      9074      9077      9078      9076      9074      9077      9079
      9076      9074      9077      9080      9077      9080      9083      9084
      9077      9080      9083      9085      9077      9080      9083      9086
      9078      9077      9080      9081      9078      9077      9080      9082
      9078      9077      9080      9083      9079      9077      9080      9081
      9079      9077      9080      9082      9079      9077      9080      9083
      9080      9083      9086      9087      9080      9083      9086      9088
      9080      9083      9086      9089      9081      9080      9083      9084
      9081      9080      9083      9085      9081      9080      9083      9086
      9082      9080      9083      9084      9082      9080      9083      9085
      9082      9080      9083      9086      9083      9086      9089      9090
      9083      9086      9089      9091      9083      9086      9089      9092
      9084      9083      9086      9087      9084      9083      9086      9088
      9084      9083      9086      9089      9085      9083      9086      9087
      9085      9083      9086      9088      9085      9083      9086      9089
      9086      9089      9092      9093      9086      9089      9092      9094
      9086      9089      9092      9095      9087      9086      9089      9090
      9087      9086      9089      9091      9087      9086      9089      9092
      9088      9086      9089      9090      9088      9086      9089      9091
      9088      9086      9089      9092      9090      9089      9092      9093
      9090      9089      9092      9094      9090      9089      9092      9095
      9091      9089      9092      9093      9091      9089      9092      9094
      9091      9089      9092      9095      9096      9100      9103      9104
      9096      9100      9103      9134      9096      9142      9139      9134
      9096      9142      9139      9140      9096      9142      9139      9141
      9097      9096      9098      9099      9097      9096      9100      9101
      9097      9096      9100      9102      9097      9096      9100      9103
      9097      9096      9142      9139      9097      9096      9142      9143
      9097      9096      9142      9144      9098      9096      9100      9101
      9098      9096      9100      9102      9098      9096      9100      9103
      9098      9096      9142      9139      9098      9096      9142      9143
      9098      9096      9142      9144      9099      9098      9096      9100
      9099      9098      9096      9142      9100      9096      9142      9139
      9100      9096      9142      9143      9100      9096      9142      9144
      9100      9103      9104      9105      9100      9103      9104      9106
      9100      9103      9134      9132      9100      9103      9134      9135
      9100      9103      9134      9139      9101      9100      9096      9142
      9101      9100      9103      9104      9101      9100      9103      9134
      9102      9100      9096      9142      9102      9100      9103      9104
      9102      9100      9103      9134      9103      9100      9096      9142
      9103      9104      9106      9107      9103      9104      9106      9108
      9103      9104      9106      9109      9103      9134      9132      9109
      9103      9134      9132      9129      9103      9134      9132      9133
      9103      9134      9135      9136      9103      9134      9135      9137
      9103      9134      9135      9138      9103      9134      9139      9140
      9103      9134      9139      9141      9103      9134      9139      9142
      9104      9103      9134      9132      9104      9103      9134      9135
      9104      9103      9134      9139      9104      9106      9109      9110
      9104      9106      9109      9111      9104      9106      9109      9132
      9105      9104      9103      9134      9105      9104      9106      9107
      9105      9104      9106      9108      9105      9104      9106      9109
      9106      9104      9103      9134      9106      9109      9111      9112
      9106      9109      9111      9113      9106      9109      9111      9121
      9106      9109      9132      9129      9106      9109      9132      9133
      9106      9109      9132      9134      9107      9106      9109      9110
      9107      9106      9109      9111      9107      9106      9109      9132
      9108      9106      9109      9110      9108      9106      9109      9111
      9108      9106      9109      9132      9109      9111      9113      9114
      9109      9111      9113      9115      9109      9111      9113      9116
      9109      9111      9121      9119      9109      9111      9121      9122
      9109      9111      9121      9126      9109      9132      9129      9126
      9109      9132      9129      9130      9109      9132      9129      9131
      9109      9132      9134      9135      9109      9132      9134      9139
      9110      9109      9111      9112      9110      9109      9111      9113
      9110      9109      9111      9121      9110      9109      9132      9129
      9110      9109      9132      9133      9110      9109      9132      9134
      9111      9109      9132      9129      9111      9109      9132      9133
      9111      9109      9132      9134      9111      9113      9116      9117
      9111      9113      9116      9118      9111      9113      9116      9119
      9111      9121      9119      9116      9111      9121      9119      9120
      9111      9121      9119      9145      9111      9121      9122      9123
      9111      9121      9122      9124      9111      9121      9122      9125
      9111      9121      9126      9127      9111      9121      9126      9128
      9111      9121      9126      9129      9112      9111      9109      9132
      9112      9111      9113      9114      9112      9111      9113      9115
      9112      9111      9113      9116      9112      9111      9121      9119
      9112      9111      9121      9122      9112      9111      9121      9126
      9113      9111      9109      9132      9113      9111      9121      9119
      9113      9111      9121      9122      9113      9111      9121      9126
      9113      9116      9119      9120      9113      9116      9119      9121
      9113      9116      9119      9145      9114      9113      9111      9121
      9114      9113      9116      9117      9114      9113      9116      9118
      9114      9113      9116      9119      9115      9113      9111      9121
      9115      9113      9116      9117      9115      9113      9116      9118
      9115      9113      9116      9119      9116      9113      9111      9121
      9116      9119      9121      9122      9116      9119      9121      9126
      9116      9119      9145      9146      9116      9119      9145      9147
      9116      9119      9145      9151      9117      9116      9119      9120
      9117      9116      9119      9121      9117      9116      9119      9145
      9118      9116      9119      9120      9118      9116      9119      9121
      9118      9116      9119      9145      9119      9121      9122      9123
      9119      9121      9122      9124      9119      9121      9122      9125
      9119      9121      9126      9127      9119      9121      9126      9128
      9119      9121      9126      9129      9119      9145      9147      9148
      9119      9145      9147      9149      9119      9145      9147      9150
      9119      9145      9151      9152      9119      9145      9151      9153
      9119      9145      9151      9154      9120      9119      9121      9122
      9120      9119      9121      9126      9120      9119      9145      9146
      9120      9119      9145      9147      9120      9119      9145      9151
      9121      9111      9109      9132      9121      9119      9145      9146
      9121      9119      9145      9147      9121      9119      9145      9151
      9121      9126      9129      9130      9121      9126      9129      9131
      9121      9126      9129      9132      9122      9121      9119      9145
      9122      9121      9126      9127      9122      9121      9126      9128
      9122      9121      9126      9129      9123      9122      9121      9126
      9124      9122      9121      9126      9125      9122      9121      9126
      9126      9121      9119      9145      9126      9129      9132      9133
      9126      9129      9132      9134      9127      9126      9129      9130
      9127      9126      9129      9131      9127      9126      9129      9132
      9128      9126      9129      9130      9128      9126      9129      9131
      9128      9126      9129      9132      9129      9132      9134      9135
      9129      9132      9134      9139      9130      9129      9132      9133
      9130      9129      9132      9134      9131      9129      9132      9133
      9131      9129      9132      9134      9132      9134      9135      9136
      9132      9134      9135      9137      9132      9134      9135      9138
      9132      9134      9139      9140      9132      9134      9139      9141
      9132      9134      9139      9142      9133      9132      9134      9135
      9133      9132      9134      9139      9134      9139      9142      9143
      9134      9139      9142      9144      9135      9134      9139      9140
      9135      9134      9139      9141      9135      9134      9139      9142
      9136      9135      9134      9139      9137      9135      9134      9139
      9138      9135      9134      9139      9140      9139      9142      9143
      9140      9139      9142      9144      9141      9139      9142      9143
      9141      9139      9142      9144      9145      9151      9154      9155
      9145      9151      9154      9156      9145      9151      9154      9157
      9146      9145      9147      9148      9146      9145      9147      9149
      9146      9145      9147      9150      9146      9145      9151      9152
      9146      9145      9151      9153      9146      9145      9151      9154
      9147      9145      9151      9152      9147      9145      9151      9153
      9147      9145      9151      9154      9148      9147      9145      9151
      9149      9147      9145      9151      9150      9147      9145      9151
      9151      9154      9157      9158      9151      9154      9157      9159
      9151      9154      9157      9160      9152      9151      9154      9155
      9152      9151      9154      9156      9152      9151      9154      9157
      9153      9151      9154      9155      9153      9151      9154      9156
      9153      9151      9154      9157      9154      9157      9160      9161
      9154      9157      9160      9162      9154      9157      9160      9166
      9155      9154      9157      9158      9155      9154      9157      9159
      9155      9154      9157      9160      9156      9154      9157      9158
      9156      9154      9157      9159      9156      9154      9157      9160
      9157      9160      9162      9163      9157      9160      9162      9164
      9157      9160      9162      9165      9157      9160      9166      9167
      9157      9160      9166      9168      9157      9160      9166      9169
      9158      9157      9160      9161      9158      9157      9160      9162
      9158      9157      9160      9166      9159      9157      9160      9161
      9159      9157      9160      9162      9159      9157      9160      9166
      9161      9160      9162      9163      9161      9160      9162      9164
      9161      9160      9162      9165      9161      9160      9166      9167
      9161      9160      9166      9168      9161      9160      9166      9169
      9162      9160      9166      9167      9162      9160      9166      9168
      9162      9160      9166      9169      9163      9162      9160      9166
      9164      9162      9160      9166      9165      9162      9160      9166
      9170      9174      9177      9178      9170      9174      9177      9208
      9170      9216      9213      9208      9170      9216      9213      9214
      9170      9216      9213      9215      9171      9170      9172      9173
      9171      9170      9174      9175      9171      9170      9174      9176
      9171      9170      9174      9177      9171      9170      9216      9213
      9171      9170      9216      9217      9171      9170      9216      9218
      9172      9170      9174      9175      9172      9170      9174      9176
      9172      9170      9174      9177      9172      9170      9216      9213
      9172      9170      9216      9217      9172      9170      9216      9218
      9173      9172      9170      9174      9173      9172      9170      9216
      9174      9170      9216      9213      9174      9170      9216      9217
      9174      9170      9216      9218      9174      9177      9178      9179
      9174      9177      9178      9180      9174      9177      9208      9206
      9174      9177      9208      9209      9174      9177      9208      9213
      9175      9174      9170      9216      9175      9174      9177      9178
      9175      9174      9177      9208      9176      9174      9170      9216
      9176      9174      9177      9178      9176      9174      9177      9208
      9177      9174      9170      9216      9177      9178      9180      9181
      9177      9178      9180      9182      9177      9178      9180      9183
      9177      9208      9206      9183      9177      9208      9206      9203
      9177      9208      9206      9207      9177      9208      9209      9210
      9177      9208      9209      9211      9177      9208      9209      9212
      9177      9208      9213      9214      9177      9208      9213      9215
      9177      9208      9213      9216      9178      9177      9208      9206
      9178      9177      9208      9209      9178      9177      9208      9213
      9178      9180      9183      9184      9178      9180      9183      9185
      9178      9180      9183      9206      9179      9178      9177      9208
      9179      9178      9180      9181      9179      9178      9180      9182
      9179      9178      9180      9183      9180      9178      9177      9208
      9180      9183      9185      9186      9180      9183      9185      9187
      9180      9183      9185      9195      9180      9183      9206      9203
      9180      9183      9206      9207      9180      9183      9206      9208
      9181      9180      9183      9184      9181      9180      9183      9185
      9181      9180      9183      9206      9182      9180      9183      9184
      9182      9180      9183      9185      9182      9180      9183      9206
      9183      9185      9187      9188      9183      9185      9187      9189
      9183      9185      9187      9190      9183      9185      9195      9193
      9183      9185      9195      9196      9183      9185      9195      9200
      9183      9206      9203      9200      9183      9206      9203      9204
      9183      9206      9203      9205      9183      9206      9208      9209
      9183      9206      9208      9213      9184      9183      9185      9186
      9184      9183      9185      9187      9184      9183      9185      9195
      9184      9183      9206      9203      9184      9183      9206      9207
      9184      9183      9206      9208      9185      9183      9206      9203
      9185      9183      9206      9207      9185      9183      9206      9208
      9185      9187      9190      9191      9185      9187      9190      9192
      9185      9187      9190      9193      9185      9195      9193      9190
      9185      9195      9193      9194      9185      9195      9193      9219
      9185      9195      9196      9197      9185      9195      9196      9198
      9185      9195      9196      9199      9185      9195      9200      9201
      9185      9195      9200      9202      9185      9195      9200      9203
      9186      9185      9183      9206      9186      9185      9187      9188
      9186      9185      9187      9189      9186      9185      9187      9190
      9186      9185      9195      9193      9186      9185      9195      9196
      9186      9185      9195      9200      9187      9185      9183      9206
      9187      9185      9195      9193      9187      9185      9195      9196
      9187      9185      9195      9200      9187      9190      9193      9194
      9187      9190      9193      9195      9187      9190      9193      9219
      9188      9187      9185      9195      9188      9187      9190      9191
      9188      9187      9190      9192      9188      9187      9190      9193
      9189      9187      9185      9195      9189      9187      9190      9191
      9189      9187      9190      9192      9189      9187      9190      9193
      9190      9187      9185      9195      9190      9193      9195      9196
      9190      9193      9195      9200      9190      9193      9219      9220
      9190      9193      9219      9221      9190      9193      9219      9225
      9191      9190      9193      9194      9191      9190      9193      9195
      9191      9190      9193      9219      9192      9190      9193      9194
      9192      9190      9193      9195      9192      9190      9193      9219
      9193      9195      9196      9197      9193      9195      9196      9198
      9193      9195      9196      9199      9193      9195      9200      9201
      9193      9195      9200      9202      9193      9195      9200      9203
      9193      9219      9221      9222      9193      9219      9221      9223
      9193      9219      9221      9224      9193      9219      9225      9226
      9193      9219      9225      9227      9193      9219      9225      9228
      9194      9193      9195      9196      9194      9193      9195      9200
      9194      9193      9219      9220      9194      9193      9219      9221
      9194      9193      9219      9225      9195      9185      9183      9206
      9195      9193      9219      9220      9195      9193      9219      9221
      9195      9193      9219      9225      9195      9200      9203      9204
      9195      9200      9203      9205      9195      9200      9203      9206
      9196      9195      9193      9219      9196      9195      9200      9201
      9196      9195      9200      9202      9196      9195      9200      9203
      9197      9196      9195      9200      9198      9196      9195      9200
      9199      9196      9195      9200      9200      9195      9193      9219
      9200      9203      9206      9207      9200      9203      9206      9208
      9201      9200      9203      9204      9201      9200      9203      9205
      9201      9200      9203      9206      9202      9200      9203      9204
      9202      9200      9203      9205      9202      9200      9203      9206
      9203      9206      9208      9209      9203      9206      9208      9213
      9204      9203      9206      9207      9204      9203      9206      9208
      9205      9203      9206      9207      9205      9203      9206      9208
      9206      9208      9209      9210      9206      9208      9209      9211
      9206      9208      9209      9212      9206      9208      9213      9214
      9206      9208      9213      9215      9206      9208      9213      9216
      9207      9206      9208      9209      9207      9206      9208      9213
      9208      9213      9216      9217      9208      9213      9216      9218
      9209      9208      9213      9214      9209      9208      9213      9215
      9209      9208      9213      9216      9210      9209      9208      9213
      9211      9209      9208      9213      9212      9209      9208      9213
      9214      9213      9216      9217      9214      9213      9216      9218
      9215      9213      9216      9217      9215      9213      9216      9218
      9219      9225      9228      9229      9219      9225      9228      9230
      9219      9225      9228      9231      9220      9219      9221      9222
      9220      9219      9221      9223      9220      9219      9221      9224
      9220      9219      9225      9226      9220      9219      9225      9227
      9220      9219      9225      9228      9221      9219      9225      9226
      9221      9219      9225      9227      9221      9219      9225      9228
      9222      9221      9219      9225      9223      9221      9219      9225
      9224      9221      9219      9225      9225      9228      9231      9232
      9225      9228      9231      9233      9225      9228      9231      9234
      9226      9225      9228      9229      9226      9225      9228      9230
      9226      9225      9228      9231      9227      9225      9228      9229
      9227      9225      9228      9230      9227      9225      9228      9231
      9228      9231      9234      9235      9228      9231      9234      9236
      9228      9231      9234      9240      9229      9228      9231      9232
      9229      9228      9231      9233      9229      9228      9231      9234
      9230      9228      9231      9232      9230      9228      9231      9233
      9230      9228      9231      9234      9231      9234      9236      9237
      9231      9234      9236      9238      9231      9234      9236      9239
      9231      9234      9240      9241      9231      9234      9240      9242
      9231      9234      9240      9243      9232      9231      9234      9235
      9232      9231      9234      9236      9232      9231      9234      9240
      9233      9231      9234      9235      9233      9231      9234      9236
      9233      9231      9234      9240      9235      9234      9236      9237
      9235      9234      9236      9238      9235      9234      9236      9239
      9235      9234      9240      9241      9235      9234      9240      9242
      9235      9234      9240      9243      9236      9234      9240      9241
      9236      9234      9240      9242      9236      9234      9240      9243
      9237      9236      9234      9240      9238      9236      9234      9240
      9239      9236      9234      9240      9244      9257      9260      9261
      9244      9257      9260      9262      9244      9257      9260      9267
      9245      9244      9249      9250      9245      9244      9249      9251
      9245      9244      9249      9252      9245      9244      9253      9254
      9245      9244      9253      9255      9245      9244      9253      9256
      9245      9244      9257      9258      9245      9244      9257      9259
      9245      9244      9257      9260      9246      9245      9244      9249
      9246      9245      9244      9253      9246      9245      9244      9257
      9247      9245      9244      9249      9247      9245      9244      9253
      9247      9245      9244      9257      9248      9245      9244      9249
      9248      9245      9244      9253      9248      9245      9244      9257
      9249      9244      9253      9254      9249      9244      9253      9255
      9249      9244      9253      9256      9249      9244      9257      9258
      9249      9244      9257      9259      9249      9244      9257      9260
      9250      9249      9244      9253      9250      9249      9244      9257
      9251      9249      9244      9253      9251      9249      9244      9257
      9252      9249      9244      9253      9252      9249      9244      9257
      9253      9244      9257      9258      9253      9244      9257      9259
      9253      9244      9257      9260      9254      9253      9244      9257
      9255      9253      9244      9257      9256      9253      9244      9257
      9257      9260      9267      9263      9258      9257      9260      9261
      9258      9257      9260      9262      9258      9257      9260      9267
      9259      9257      9260      9261      9259      9257      9260      9262
      9259      9257      9260      9267      9260      9267      9263      9264
      9260      9267      9263      9265      9260      9267      9263      9266
      9261      9260      9267      9263      9262      9260      9267      9263
      9263      9266      9268      9269      9263      9266      9268      9270
      9263      9266      9268      9273      9264      9263      9266      9268
      9265      9263      9266      9268      9266      9268      9273      9271
      9266      9268      9273      9274      9266      9268      9273      9275
      9267      9263      9266      9268      9268      9273      9271      9272
      9268      9273      9271      9323      9268      9273      9275      9276
      9268      9273      9275      9277      9268      9273      9275      9279
      9269      9268      9273      9271      9269      9268      9273      9274
      9269      9268      9273      9275      9270      9268      9273      9271
      9270      9268      9273      9274      9270      9268      9273      9275
      9271      9273      9275      9276      9271      9273      9275      9277
      9271      9273      9275      9279      9271      9323      9325      9326
      9271      9323      9325      9327      9271      9323      9325      9328
      9272      9271      9273      9274      9272      9271      9273      9275
      9272      9271      9323      9324      9272      9271      9323      9325
      9273      9271      9323      9324      9273      9271      9323      9325
      9273      9275      9277      9278      9273      9275      9279      9280
      9273      9275      9279      9281      9274      9273      9271      9323
      9274      9273      9275      9276      9274      9273      9275      9277
      9274      9273      9275      9279      9275      9273      9271      9323
      9275      9279      9281      9282      9275      9279      9281      9283
      9276      9275      9277      9278      9276      9275      9279      9280
      9276      9275      9279      9281      9277      9275      9279      9280
      9277      9275      9279      9281      9278      9277      9275      9279
      9279      9281      9283      9284      9279      9281      9283      9285
      9279      9281      9283      9286      9280      9279      9281      9282
      9280      9279      9281      9283      9281      9283      9286      9287
      9281      9283      9286      9288      9281      9283      9286      9289
      9282      9281      9283      9284      9282      9281      9283      9285
      9282      9281      9283      9286      9283      9286      9289      9290
      9283      9286      9289      9291      9283      9286      9289      9292
      9284      9283      9286      9287      9284      9283      9286      9288
      9284      9283      9286      9289      9285      9283      9286      9287
      9285      9283      9286      9288      9285      9283      9286      9289
      9286      9289      9292      9293      9286      9289      9292      9294
      9286      9289      9292      9295      9287      9286      9289      9290
      9287      9286      9289      9291      9287      9286      9289      9292
      9288      9286      9289      9290      9288      9286      9289      9291
      9288      9286      9289      9292      9289      9292      9295      9296
      9289      9292      9295      9297      9289      9292      9295      9298
      9290      9289      9292      9293      9290      9289      9292      9294
      9290      9289      9292      9295      9291      9289      9292      9293
      9291      9289      9292      9294      9291      9289      9292      9295
      9292      9295      9298      9299      9292      9295      9298      9300
      9292      9295      9298      9301      9293      9292      9295      9296
      9293      9292      9295      9297      9293      9292      9295      9298
      9294      9292      9295      9296      9294      9292      9295      9297
      9294      9292      9295      9298      9295      9298      9301      9302
      9295      9298      9301      9303      9295      9298      9301      9304
      9296      9295      9298      9299      9296      9295      9298      9300
      9296      9295      9298      9301      9297      9295      9298      9299
      9297      9295      9298      9300      9297      9295      9298      9301
      9298      9301      9304      9305      9298      9301      9304      9306
      9298      9301      9304      9307      9299      9298      9301      9302
      9299      9298      9301      9303      9299      9298      9301      9304
      9300      9298      9301      9302      9300      9298      9301      9303
      9300      9298      9301      9304      9301      9304      9307      9308
      9301      9304      9307      9309      9301      9304      9307      9310
      9302      9301      9304      9305      9302      9301      9304      9306
      9302      9301      9304      9307      9303      9301      9304      9305
      9303      9301      9304      9306      9303      9301      9304      9307
      9304      9307      9310      9311      9304      9307      9310      9312
      9304      9307      9310      9313      9305      9304      9307      9308
      9305      9304      9307      9309      9305      9304      9307      9310
      9306      9304      9307      9308      9306      9304      9307      9309
      9306      9304      9307      9310      9307      9310      9313      9314
      9307      9310      9313      9315      9307      9310      9313      9316
      9308      9307      9310      9311      9308      9307      9310      9312
      9308      9307      9310      9313      9309      9307      9310      9311
      9309      9307      9310      9312      9309      9307      9310      9313
      9310      9313      9316      9317      9310      9313      9316      9318
      9310      9313      9316      9319      9311      9310      9313      9314
      9311      9310      9313      9315      9311      9310      9313      9316
      9312      9310      9313      9314      9312      9310      9313      9315
      9312      9310      9313      9316      9313      9316      9319      9320
      9313      9316      9319      9321      9313      9316      9319      9322
      9314      9313      9316      9317      9314      9313      9316      9318
      9314      9313      9316      9319      9315      9313      9316      9317
      9315      9313      9316      9318      9315      9313      9316      9319
      9317      9316      9319      9320      9317      9316      9319      9321
      9317      9316      9319      9322      9318      9316      9319      9320
      9318      9316      9319      9321      9318      9316      9319      9322
      9323      9325      9328      9329      9323      9325      9328      9330
      9323      9325      9328      9331      9324      9323      9325      9326
      9324      9323      9325      9327      9324      9323      9325      9328
      9325      9328      9331      9332      9325      9328      9331      9333
      9325      9328      9331      9334      9326      9325      9328      9329
      9326      9325      9328      9330      9326      9325      9328      9331
      9327      9325      9328      9329      9327      9325      9328      9330
      9327      9325      9328      9331      9328      9331      9334      9335
      9328      9331      9334      9336      9328      9331      9334      9337
      9329      9328      9331      9332      9329      9328      9331      9333
      9329      9328      9331      9334      9330      9328      9331      9332
      9330      9328      9331      9333      9330      9328      9331      9334
      9331      9334      9337      9338      9331      9334      9337      9339
      9331      9334      9337      9340      9332      9331      9334      9335
      9332      9331      9334      9336      9332      9331      9334      9337
      9333      9331      9334      9335      9333      9331      9334      9336
      9333      9331      9334      9337      9334      9337      9340      9341
      9334      9337      9340      9342      9334      9337      9340      9343
      9335      9334      9337      9338      9335      9334      9337      9339
      9335      9334      9337      9340      9336      9334      9337      9338
      9336      9334      9337      9339      9336      9334      9337      9340
      9337      9340      9343      9344      9337      9340      9343      9345
      9337      9340      9343      9346      9338      9337      9340      9341
      9338      9337      9340      9342      9338      9337      9340      9343
      9339      9337      9340      9341      9339      9337      9340      9342
      9339      9337      9340      9343      9340      9343      9346      9347
      9340      9343      9346      9348      9341      9340      9343      9344
      9341      9340      9343      9345      9341      9340      9343      9346
      9342      9340      9343      9344      9342      9340      9343      9345
      9342      9340      9343      9346      9343      9346      9348      9349
      9343      9346      9348      9350      9344      9343      9346      9347
      9344      9343      9346      9348      9345      9343      9346      9347
      9345      9343      9346      9348      9346      9348      9350      9351
      9346      9348      9350      9352      9346      9348      9350      9353
      9347      9346      9348      9349      9347      9346      9348      9350
      9348      9350      9353      9354      9348      9350      9353      9355
      9348      9350      9353      9356      9349      9348      9350      9351
      9349      9348      9350      9352      9349      9348      9350      9353
      9350      9353      9356      9357      9350      9353      9356      9358
      9350      9353      9356      9359      9351      9350      9353      9354
      9351      9350      9353      9355      9351      9350      9353      9356
      9352      9350      9353      9354      9352      9350      9353      9355
      9352      9350      9353      9356      9353      9356      9359      9360
      9353      9356      9359      9361      9353      9356      9359      9362
      9354      9353      9356      9357      9354      9353      9356      9358
      9354      9353      9356      9359      9355      9353      9356      9357
      9355      9353      9356      9358      9355      9353      9356      9359
      9356      9359      9362      9363      9356      9359      9362      9364
      9356      9359      9362      9365      9357      9356      9359      9360
      9357      9356      9359      9361      9357      9356      9359      9362
      9358      9356      9359      9360      9358      9356      9359      9361
      9358      9356      9359      9362      9359      9362      9365      9366
      9359      9362      9365      9367      9359      9362      9365      9368
      9360      9359      9362      9363      9360      9359      9362      9364
      9360      9359      9362      9365      9361      9359      9362      9363
      9361      9359      9362      9364      9361      9359      9362      9365
      9362      9365      9368      9369      9362      9365      9368      9370
      9362      9365      9368      9371      9363      9362      9365      9366
      9363      9362      9365      9367      9363      9362      9365      9368
      9364      9362      9365      9366      9364      9362      9365      9367
      9364      9362      9365      9368      9365      9368      9371      9372
      9365      9368      9371      9373      9365      9368      9371      9374
      9366      9365      9368      9369      9366      9365      9368      9370
      9366      9365      9368      9371      9367      9365      9368      9369
      9367      9365      9368      9370      9367      9365      9368      9371
      9369      9368      9371      9372      9369      9368      9371      9373
      9369      9368      9371      9374      9370      9368      9371      9372
      9370      9368      9371      9373      9370      9368      9371      9374
      9375      9379      9381      9382      9375      9379      9383      9384
      9375      9379      9383      9385      9375      9379      9383      9387
      9375      9395      9391      9387      9375      9395      9391      9392
      9375      9395      9391      9393      9375      9395      9400      9397
      9376      9375      9377      9378      9376      9375      9379      9380
      9376      9375      9379      9381      9376      9375      9379      9383
      9376      9375      9395      9391      9376      9375      9395      9396
      9376      9375      9395      9400      9377      9375      9379      9380
      9377      9375      9379      9381      9377      9375      9379      9383
      9377      9375      9395      9391      9377      9375      9395      9396
      9377      9375      9395      9400      9378      9377      9375      9379
      9378      9377      9375      9395      9379      9375      9395      9391
      9379      9375      9395      9396      9379      9375      9395      9400
      9379      9383      9385      9386      9379      9383      9387      9388
      9379      9383      9387      9389      9379      9383      9387      9391
      9380      9379      9375      9395      9380      9379      9381      9382
      9380      9379      9383      9384      9380      9379      9383      9385
      9380      9379      9383      9387      9381      9379      9375      9395
      9381      9379      9383      9384      9381      9379      9383      9385
      9381      9379      9383      9387      9382      9381      9379      9383
      9383      9379      9375      9395      9383      9387      9389      9390
      9383      9387      9391      9392      9383      9387      9391      9393
      9383      9387      9391      9395      9384      9383      9385      9386
      9384      9383      9387      9388      9384      9383      9387      9389
      9384      9383      9387      9391      9385      9383      9387      9388
      9385      9383      9387      9389      9385      9383      9387      9391
      9386      9385      9383      9387      9387      9391      9393      9394
      9387      9391      9395      9396      9387      9391      9395      9400
      9388      9387      9389      9390      9388      9387      9391      9392
      9388      9387      9391      9393      9388      9387      9391      9395
      9389      9387      9391      9392      9389      9387      9391      9393
      9389      9387      9391      9395      9390      9389      9387      9391
      9391      9395      9400      9397      9392      9391      9393      9394
      9392      9391      9395      9396      9392      9391      9395      9400
      9393      9391      9395      9396      9393      9391      9395      9400
      9394      9393      9391      9395      9395      9400      9397      9398
      9395      9400      9397      9399      9395      9400      9397      9401
      9396      9395      9400      9397      9397      9401      9402      9403
      9397      9401      9402      9404      9397      9401      9402      9405
      9398      9397      9401      9402      9399      9397      9401      9402
      9400      9397      9401      9402      9401      9402      9405      9406
      9401      9402      9405      9407      9401      9402      9405      9413
      9402      9405      9407      9408      9402      9405      9413      9414
      9402      9405      9413      9415      9402      9405      9413      9416
      9403      9402      9405      9406      9403      9402      9405      9407
      9403      9402      9405      9413      9404      9402      9405      9406
      9404      9402      9405      9407      9404      9402      9405      9413
      9405      9407      9408      9409      9405      9407      9408      9410
      9405      9413      9416      9417      9406      9405      9407      9408
      9406      9405      9413      9414      9406      9405      9413      9415
      9406      9405      9413      9416      9407      9405      9413      9414
      9407      9405      9413      9415      9407      9405      9413      9416
      9407      9408      9410      9411      9407      9408      9410      9412
      9407      9408      9410      9422      9408      9407      9405      9413
      9408      9410      9422      9423      9408      9410      9422      9424
      9408      9410      9422      9425      9409      9408      9410      9411
      9409      9408      9410      9412      9409      9408      9410      9422
      9410      9422      9425      9426      9410      9422      9425      9427
      9410      9422      9425      9428      9411      9410      9422      9423
      9411      9410      9422      9424      9411      9410      9422      9425
      9412      9410      9422      9423      9412      9410      9422      9424
      9412      9410      9422      9425      9413      9416      9417      9418
      9413      9416      9417      9419      9414      9413      9416      9417
      9415      9413      9416      9417      9416      9417      9419      9420
      9416      9417      9419      9421      9416      9417      9419      9469
      9417      9419      9469      9470      9417      9419      9469      9471
      9417      9419      9469      9472      9418      9417      9419      9420
      9418      9417      9419      9421      9418      9417      9419      9469
      9419      9469      9472      9473      9419      9469      9472      9474
      9419      9469      9472      9475      9420      9419      9469      9470
      9420      9419      9469      9471      9420      9419      9469      9472
      9421      9419      9469      9470      9421      9419      9469      9471
      9421      9419      9469      9472      9422      9425      9428      9429
      9422      9425      9428      9430      9423      9422      9425      9426
      9423      9422      9425      9427      9423      9422      9425      9428
      9424      9422      9425      9426      9424      9422      9425      9427
      9424      9422      9425      9428      9425      9428      9430      9431
      9425      9428      9430      9432      9426      9425      9428      9429
      9426      9425      9428      9430      9427      9425      9428      9429
      9427      9425      9428      9430      9428      9430      9432      9433
      9428      9430      9432      9434      9428      9430      9432      9435
      9429      9428      9430      9431      9429      9428      9430      9432
      9430      9432      9435      9436      9430      9432      9435      9437
      9431      9430      9432      9433      9431      9430      9432      9434
      9431      9430      9432      9435      9432      9435      9437      9438
      9432      9435      9437      9439      9433      9432      9435      9436
      9433      9432      9435      9437      9434      9432      9435      9436
      9434      9432      9435      9437      9435      9437      9439      9440
      9435      9437      9439      9441      9435      9437      9439      9442
      9436      9435      9437      9438      9436      9435      9437      9439
      9437      9439      9442      9443      9437      9439      9442      9444
      9438      9437      9439      9440      9438      9437      9439      9441
      9438      9437      9439      9442      9439      9442      9444      9445
      9439      9442      9444      9446      9440      9439      9442      9443
      9440      9439      9442      9444      9441      9439      9442      9443
      9441      9439      9442      9444      9442      9444      9446      9447
      9442      9444      9446      9448      9442      9444      9446      9449
      9443      9442      9444      9445      9443      9442      9444      9446
      9444      9446      9449      9450      9444      9446      9449      9451
      9445      9444      9446      9447      9445      9444      9446      9448
      9445      9444      9446      9449      9446      9449      9451      9452
      9446      9449      9451      9453      9447      9446      9449      9450
      9447      9446      9449      9451      9448      9446      9449      9450
      9448      9446      9449      9451      9449      9451      9453      9454
      9449      9451      9453      9455      9449      9451      9453      9456
      9450      9449      9451      9452      9450      9449      9451      9453
      9451      9453      9456      9457      9451      9453      9456      9458
      9451      9453      9456      9459      9452      9451      9453      9454
      9452      9451      9453      9455      9452      9451      9453      9456
      9453      9456      9459      9460      9453      9456      9459      9461
      9453      9456      9459      9462      9454      9453      9456      9457
      9454      9453      9456      9458      9454      9453      9456      9459
      9455      9453      9456      9457      9455      9453      9456      9458
      9455      9453      9456      9459      9456      9459      9462      9463
      9456      9459      9462      9464      9456      9459      9462      9465
      9457      9456      9459      9460      9457      9456      9459      9461
      9457      9456      9459      9462      9458      9456      9459      9460
      9458      9456      9459      9461      9458      9456      9459      9462
      9459      9462      9465      9466      9459      9462      9465      9467
      9459      9462      9465      9468      9460      9459      9462      9463
      9460      9459      9462      9464      9460      9459      9462      9465
      9461      9459      9462      9463      9461      9459      9462      9464
      9461      9459      9462      9465      9463      9462      9465      9466
      9463      9462      9465      9467      9463      9462      9465      9468
      9464      9462      9465      9466      9464      9462      9465      9467
      9464      9462      9465      9468      9469      9472      9475      9476
      9469      9472      9475      9477      9469      9472      9475      9478
      9470      9469      9472      9473      9470      9469      9472      9474
      9470      9469      9472      9475      9471      9469      9472      9473
      9471      9469      9472      9474      9471      9469      9472      9475
      9472      9475      9478      9479      9472      9475      9478      9480
      9472      9475      9478      9481      9473      9472      9475      9476
      9473      9472      9475      9477      9473      9472      9475      9478
      9474      9472      9475      9476      9474      9472      9475      9477
      9474      9472      9475      9478      9475      9478      9481      9482
      9475      9478      9481      9483      9475      9478      9481      9484
      9476      9475      9478      9479      9476      9475      9478      9480
      9476      9475      9478      9481      9477      9475      9478      9479
      9477      9475      9478      9480      9477      9475      9478      9481
      9478      9481      9484      9485      9478      9481      9484      9486
      9478      9481      9484      9487      9479      9478      9481      9482
      9479      9478      9481      9483      9479      9478      9481      9484
      9480      9478      9481      9482      9480      9478      9481      9483
      9480      9478      9481      9484      9481      9484      9487      9488
      9481      9484      9487      9489      9481      9484      9487      9490
      9482      9481      9484      9485      9482      9481      9484      9486
      9482      9481      9484      9487      9483      9481      9484      9485
      9483      9481      9484      9486      9483      9481      9484      9487
      9484      9487      9490      9491      9484      9487      9490      9492
      9484      9487      9490      9493      9485      9484      9487      9488
      9485      9484      9487      9489      9485      9484      9487      9490
      9486      9484      9487      9488      9486      9484      9487      9489
      9486      9484      9487      9490      9487      9490      9493      9494
      9487      9490      9493      9495      9487      9490      9493      9496
      9488      9487      9490      9491      9488      9487      9490      9492
      9488      9487      9490      9493      9489      9487      9490      9491
      9489      9487      9490      9492      9489      9487      9490      9493
      9490      9493      9496      9497      9490      9493      9496      9498
      9490      9493      9496      9499      9491      9490      9493      9494
      9491      9490      9493      9495      9491      9490      9493      9496
      9492      9490      9493      9494      9492      9490      9493      9495
      9492      9490      9493      9496      9493      9496      9499      9500
      9493      9496      9499      9501      9493      9496      9499      9502
      9494      9493      9496      9497      9494      9493      9496      9498
      9494      9493      9496      9499      9495      9493      9496      9497
      9495      9493      9496      9498      9495      9493      9496      9499
      9496      9499      9502      9503      9496      9499      9502      9504
      9496      9499      9502      9505      9497      9496      9499      9500
      9497      9496      9499      9501      9497      9496      9499      9502
      9498      9496      9499      9500      9498      9496      9499      9501
      9498      9496      9499      9502      9499      9502      9505      9506
      9499      9502      9505      9507      9499      9502      9505      9508
      9500      9499      9502      9503      9500      9499      9502      9504
      9500      9499      9502      9505      9501      9499      9502      9503
      9501      9499      9502      9504      9501      9499      9502      9505
      9502      9505      9508      9509      9502      9505      9508      9510
      9502      9505      9508      9511      9503      9502      9505      9506
      9503      9502      9505      9507      9503      9502      9505      9508
      9504      9502      9505      9506      9504      9502      9505      9507
      9504      9502      9505      9508      9505      9508      9511      9512
      9505      9508      9511      9513      9505      9508      9511      9514
      9506      9505      9508      9509      9506      9505      9508      9510
      9506      9505      9508      9511      9507      9505      9508      9509
      9507      9505      9508      9510      9507      9505      9508      9511
      9508      9511      9514      9515      9508      9511      9514      9516
      9508      9511      9514      9517      9509      9508      9511      9512
      9509      9508      9511      9513      9509      9508      9511      9514
      9510      9508      9511      9512      9510      9508      9511      9513
      9510      9508      9511      9514      9512      9511      9514      9515
      9512      9511      9514      9516      9512      9511      9514      9517
      9513      9511      9514      9515      9513      9511      9514      9516
      9513      9511      9514      9517      9518      9522      9525      9526
      9518      9522      9525      9527      9518      9522      9525      9531
      9519      9518      9522      9523      9519      9518      9522      9524
      9519      9518      9522      9525      9520      9518      9522      9523
      9520      9518      9522      9524      9520      9518      9522      9525
      9521      9518      9522      9523      9521      9518      9522      9524
      9521      9518      9522      9525      9522      9525      9531      9528
      9523      9522      9525      9526      9523      9522      9525      9527
      9523      9522      9525      9531      9524      9522      9525      9526
      9524      9522      9525      9527      9524      9522      9525      9531
      9525      9531      9528      9529      9525      9531      9528      9530
      9525      9531      9528      9532      9526      9525      9531      9528
      9527      9525      9531      9528      9528      9532      9533      9534
      9528      9532      9533      9535      9528      9532      9533      9536
      9529      9528      9532      9533      9530      9528      9532      9533
      9531      9528      9532      9533      9532      9533      9536      9537
      9532      9533      9536      9538      9532      9533      9536      9544
      9533      9536      9538      9539      9533      9536      9544      9545
      9533      9536      9544      9546      9533      9536      9544      9547
      9534      9533      9536      9537      9534      9533      9536      9538
      9534      9533      9536      9544      9535      9533      9536      9537
      9535      9533      9536      9538      9535      9533      9536      9544
      9536      9538      9539      9540      9536      9538      9539      9541
      9536      9544      9547      9548      9537      9536      9538      9539
      9537      9536      9544      9545      9537      9536      9544      9546
      9537      9536      9544      9547      9538      9536      9544      9545
      9538      9536      9544      9546      9538      9536      9544      9547
      9538      9539      9541      9542      9538      9539      9541      9543
      9538      9539      9541      9553      9539      9538      9536      9544
      9539      9541      9553      9554      9539      9541      9553      9555
      9539      9541      9553      9556      9540      9539      9541      9542
      9540      9539      9541      9543      9540      9539      9541      9553
      9541      9553      9556      9557      9541      9553      9556      9558
      9541      9553      9556      9559      9542      9541      9553      9554
      9542      9541      9553      9555      9542      9541      9553      9556
      9543      9541      9553      9554      9543      9541      9553      9555
      9543      9541      9553      9556      9544      9547      9548      9549
      9544      9547      9548      9550      9545      9544      9547      9548
      9546      9544      9547      9548      9547      9548      9550      9551
      9547      9548      9550      9552      9547      9548      9550      9600
      9548      9550      9600      9601      9548      9550      9600      9602
      9548      9550      9600      9603      9549      9548      9550      9551
      9549      9548      9550      9552      9549      9548      9550      9600
      9550      9600      9603      9604      9550      9600      9603      9605
      9550      9600      9603      9606      9551      9550      9600      9601
      9551      9550      9600      9602      9551      9550      9600      9603
      9552      9550      9600      9601      9552      9550      9600      9602
      9552      9550      9600      9603      9553      9556      9559      9560
      9553      9556      9559      9561      9554      9553      9556      9557
      9554      9553      9556      9558      9554      9553      9556      9559
      9555      9553      9556      9557      9555      9553      9556      9558
      9555      9553      9556      9559      9556      9559      9561      9562
      9556      9559      9561      9563      9557      9556      9559      9560
      9557      9556      9559      9561      9558      9556      9559      9560
      9558      9556      9559      9561      9559      9561      9563      9564
      9559      9561      9563      9565      9559      9561      9563      9566
      9560      9559      9561      9562      9560      9559      9561      9563
      9561      9563      9566      9567      9561      9563      9566      9568
      9562      9561      9563      9564      9562      9561      9563      9565
      9562      9561      9563      9566      9563      9566      9568      9569
      9563      9566      9568      9570      9564      9563      9566      9567
      9564      9563      9566      9568      9565      9563      9566      9567
      9565      9563      9566      9568      9566      9568      9570      9571
      9566      9568      9570      9572      9566      9568      9570      9573
      9567      9566      9568      9569      9567      9566      9568      9570
      9568      9570      9573      9574      9568      9570      9573      9575
      9569      9568      9570      9571      9569      9568      9570      9572
      9569      9568      9570      9573      9570      9573      9575      9576
      9570      9573      9575      9577      9571      9570      9573      9574
      9571      9570      9573      9575      9572      9570      9573      9574
      9572      9570      9573      9575      9573      9575      9577      9578
      9573      9575      9577      9579      9573      9575      9577      9580
      9574      9573      9575      9576      9574      9573      9575      9577
      9575      9577      9580      9581      9575      9577      9580      9582
      9576      9575      9577      9578      9576      9575      9577      9579
      9576      9575      9577      9580      9577      9580      9582      9583
      9577      9580      9582      9584      9578      9577      9580      9581
      9578      9577      9580      9582      9579      9577      9580      9581
      9579      9577      9580      9582      9580      9582      9584      9585
      9580      9582      9584      9586      9580      9582      9584      9587
      9581      9580      9582      9583      9581      9580      9582      9584
      9582      9584      9587      9588      9582      9584      9587      9589
      9582      9584      9587      9590      9583      9582      9584      9585
      9583      9582      9584      9586      9583      9582      9584      9587
      9584      9587      9590      9591      9584      9587      9590      9592
      9584      9587      9590      9593      9585      9584      9587      9588
      9585      9584      9587      9589      9585      9584      9587      9590
      9586      9584      9587      9588      9586      9584      9587      9589
      9586      9584      9587      9590      9587      9590      9593      9594
      9587      9590      9593      9595      9587      9590      9593      9596
      9588      9587      9590      9591      9588      9587      9590      9592
      9588      9587      9590      9593      9589      9587      9590      9591
      9589      9587      9590      9592      9589      9587      9590      9593
      9590      9593      9596      9597      9590      9593      9596      9598
      9590      9593      9596      9599      9591      9590      9593      9594
      9591      9590      9593      9595      9591      9590      9593      9596
      9592      9590      9593      9594      9592      9590      9593      9595
      9592      9590      9593      9596      9594      9593      9596      9597
      9594      9593      9596      9598      9594      9593      9596      9599
      9595      9593      9596      9597      9595      9593      9596      9598
      9595      9593      9596      9599      9600      9603      9606      9607
      9600      9603      9606      9608      9600      9603      9606      9609
      9601      9600      9603      9604      9601      9600      9603      9605
      9601      9600      9603      9606      9602      9600      9603      9604
      9602      9600      9603      9605      9602      9600      9603      9606
      9603      9606      9609      9610      9603      9606      9609      9611
      9603      9606      9609      9612      9604      9603      9606      9607
      9604      9603      9606      9608      9604      9603      9606      9609
      9605      9603      9606      9607      9605      9603      9606      9608
      9605      9603      9606      9609      9606      9609      9612      9613
      9606      9609      9612      9614      9606      9609      9612      9615
      9607      9606      9609      9610      9607      9606      9609      9611
      9607      9606      9609      9612      9608      9606      9609      9610
      9608      9606      9609      9611      9608      9606      9609      9612
      9609      9612      9615      9616      9609      9612      9615      9617
      9609      9612      9615      9618      9610      9609      9612      9613
      9610      9609      9612      9614      9610      9609      9612      9615
      9611      9609      9612      9613      9611      9609      9612      9614
      9611      9609      9612      9615      9612      9615      9618      9619
      9612      9615      9618      9620      9612      9615      9618      9621
      9613      9612      9615      9616      9613      9612      9615      9617
      9613      9612      9615      9618      9614      9612      9615      9616
      9614      9612      9615      9617      9614      9612      9615      9618
      9615      9618      9621      9622      9615      9618      9621      9623
      9615      9618      9621      9624      9616      9615      9618      9619
      9616      9615      9618      9620      9616      9615      9618      9621
      9617      9615      9618      9619      9617      9615      9618      9620
      9617      9615      9618      9621      9618      9621      9624      9625
      9618      9621      9624      9626      9618      9621      9624      9627
      9619      9618      9621      9622      9619      9618      9621      9623
      9619      9618      9621      9624      9620      9618      9621      9622
      9620      9618      9621      9623      9620      9618      9621      9624
      9621      9624      9627      9628      9621      9624      9627      9629
      9621      9624      9627      9630      9622      9621      9624      9625
      9622      9621      9624      9626      9622      9621      9624      9627
      9623      9621      9624      9625      9623      9621      9624      9626
      9623      9621      9624      9627      9624      9627      9630      9631
      9624      9627      9630      9632      9624      9627      9630      9633
      9625      9624      9627      9628      9625      9624      9627      9629
      9625      9624      9627      9630      9626      9624      9627      9628
      9626      9624      9627      9629      9626      9624      9627      9630
      9627      9630      9633      9634      9627      9630      9633      9635
      9627      9630      9633      9636      9628      9627      9630      9631
      9628      9627      9630      9632      9628      9627      9630      9633
      9629      9627      9630      9631      9629      9627      9630      9632
      9629      9627      9630      9633      9630      9633      9636      9637
      9630      9633      9636      9638      9630      9633      9636      9639
      9631      9630      9633      9634      9631      9630      9633      9635
      9631      9630      9633      9636      9632      9630      9633      9634
      9632      9630      9633      9635      9632      9630      9633      9636
      9633      9636      9639      9640      9633      9636      9639      9641
      9633      9636      9639      9642      9634      9633      9636      9637
      9634      9633      9636      9638      9634      9633      9636      9639
      9635      9633      9636      9637      9635      9633      9636      9638
      9635      9633      9636      9639      9636      9639      9642      9643
      9636      9639      9642      9644      9636      9639      9642      9645
      9637      9636      9639      9640      9637      9636      9639      9641
      9637      9636      9639      9642      9638      9636      9639      9640
      9638      9636      9639      9641      9638      9636      9639      9642
      9639      9642      9645      9646      9639      9642      9645      9647
      9639      9642      9645      9648      9640      9639      9642      9643
      9640      9639      9642      9644      9640      9639      9642      9645
      9641      9639      9642      9643      9641      9639      9642      9644
      9641      9639      9642      9645      9643      9642      9645      9646
      9643      9642      9645      9647      9643      9642      9645      9648
      9644      9642      9645      9646      9644      9642      9645      9647
      9644      9642      9645      9648      9649      9653      9656      9657
      9649      9653      9656      9658      9649      9653      9656      9662
      9650      9649      9653      9654      9650      9649      9653      9655
      9650      9649      9653      9656      9651      9649      9653      9654
      9651      9649      9653      9655      9651      9649      9653      9656
      9652      9649      9653      9654      9652      9649      9653      9655
      9652      9649      9653      9656      9653      9656      9662      9659
      9654      9653      9656      9657      9654      9653      9656      9658
      9654      9653      9656      9662      9655      9653      9656      9657
      9655      9653      9656      9658      9655      9653      9656      9662
      9656      9662      9659      9660      9656      9662      9659      9661
      9656      9662      9659      9663      9657      9656      9662      9659
      9658      9656      9662      9659      9659      9663      9664      9665
      9659      9663      9664      9666      9659      9663      9664      9667
      9660      9659      9663      9664      9661      9659      9663      9664
      9662      9659      9663      9664      9663      9664      9667      9668
      9663      9664      9667      9669      9663      9664      9667      9675
      9664      9667      9669      9670      9664      9667      9675      9676
      9664      9667      9675      9677      9664      9667      9675      9678
      9665      9664      9667      9668      9665      9664      9667      9669
      9665      9664      9667      9675      9666      9664      9667      9668
      9666      9664      9667      9669      9666      9664      9667      9675
      9667      9669      9670      9671      9667      9669      9670      9672
      9667      9675      9678      9679      9668      9667      9669      9670
      9668      9667      9675      9676      9668      9667      9675      9677
      9668      9667      9675      9678      9669      9667      9675      9676
      9669      9667      9675      9677      9669      9667      9675      9678
      9669      9670      9672      9673      9669      9670      9672      9674
      9669      9670      9672      9684      9670      9669      9667      9675
      9670      9672      9684      9685      9670      9672      9684      9686
      9670      9672      9684      9687      9671      9670      9672      9673
      9671      9670      9672      9674      9671      9670      9672      9684
      9672      9684      9687      9688      9672      9684      9687      9689
      9672      9684      9687      9690      9673      9672      9684      9685
      9673      9672      9684      9686      9673      9672      9684      9687
      9674      9672      9684      9685      9674      9672      9684      9686
      9674      9672      9684      9687      9675      9678      9679      9680
      9675      9678      9679      9681      9676      9675      9678      9679
      9677      9675      9678      9679      9678      9679      9681      9682
      9678      9679      9681      9683      9678      9679      9681      9731
      9679      9681      9731      9732      9679      9681      9731      9733
      9679      9681      9731      9734      9680      9679      9681      9682
      9680      9679      9681      9683      9680      9679      9681      9731
      9681      9731      9734      9735      9681      9731      9734      9736
      9681      9731      9734      9737      9682      9681      9731      9732
      9682      9681      9731      9733      9682      9681      9731      9734
      9683      9681      9731      9732      9683      9681      9731      9733
      9683      9681      9731      9734      9684      9687      9690      9691
      9684      9687      9690      9692      9685      9684      9687      9688
      9685      9684      9687      9689      9685      9684      9687      9690
      9686      9684      9687      9688      9686      9684      9687      9689
      9686      9684      9687      9690      9687      9690      9692      9693
      9687      9690      9692      9694      9688      9687      9690      9691
      9688      9687      9690      9692      9689      9687      9690      9691
      9689      9687      9690      9692      9690      9692      9694      9695
      9690      9692      9694      9696      9690      9692      9694      9697
      9691      9690      9692      9693      9691      9690      9692      9694
      9692      9694      9697      9698      9692      9694      9697      9699
      9693      9692      9694      9695      9693      9692      9694      9696
      9693      9692      9694      9697      9694      9697      9699      9700
      9694      9697      9699      9701      9695      9694      9697      9698
      9695      9694      9697      9699      9696      9694      9697      9698
      9696      9694      9697      9699      9697      9699      9701      9702
      9697      9699      9701      9703      9697      9699      9701      9704
      9698      9697      9699      9700      9698      9697      9699      9701
      9699      9701      9704      9705      9699      9701      9704      9706
      9700      9699      9701      9702      9700      9699      9701      9703
      9700      9699      9701      9704      9701      9704      9706      9707
      9701      9704      9706      9708      9702      9701      9704      9705
      9702      9701      9704      9706      9703      9701      9704      9705
      9703      9701      9704      9706      9704      9706      9708      9709
      9704      9706      9708      9710      9704      9706      9708      9711
      9705      9704      9706      9707      9705      9704      9706      9708
      9706      9708      9711      9712      9706      9708      9711      9713
      9707      9706      9708      9709      9707      9706      9708      9710
      9707      9706      9708      9711      9708      9711      9713      9714
      9708      9711      9713      9715      9709      9708      9711      9712
      9709      9708      9711      9713      9710      9708      9711      9712
      9710      9708      9711      9713      9711      9713      9715      9716
      9711      9713      9715      9717      9711      9713      9715      9718
      9712      9711      9713      9714      9712      9711      9713      9715
      9713      9715      9718      9719      9713      9715      9718      9720
      9713      9715      9718      9721      9714      9713      9715      9716
      9714      9713      9715      9717      9714      9713      9715      9718
      9715      9718      9721      9722      9715      9718      9721      9723
      9715      9718      9721      9724      9716      9715      9718      9719
      9716      9715      9718      9720      9716      9715      9718      9721
      9717      9715      9718      9719      9717      9715      9718      9720
      9717      9715      9718      9721      9718      9721      9724      9725
      9718      9721      9724      9726      9718      9721      9724      9727
      9719      9718      9721      9722      9719      9718      9721      9723
      9719      9718      9721      9724      9720      9718      9721      9722
      9720      9718      9721      9723      9720      9718      9721      9724
      9721      9724      9727      9728      9721      9724      9727      9729
      9721      9724      9727      9730      9722      9721      9724      9725
      9722      9721      9724      9726      9722      9721      9724      9727
      9723      9721      9724      9725      9723      9721      9724      9726
      9723      9721      9724      9727      9725      9724      9727      9728
      9725      9724      9727      9729      9725      9724      9727      9730
      9726      9724      9727      9728      9726      9724      9727      9729
      9726      9724      9727      9730      9731      9734      9737      9738
      9731      9734      9737      9739      9731      9734      9737      9740
      9732      9731      9734      9735      9732      9731      9734      9736
      9732      9731      9734      9737      9733      9731      9734      9735
      9733      9731      9734      9736      9733      9731      9734      9737
      9734      9737      9740      9741      9734      9737      9740      9742
      9734      9737      9740      9743      9735      9734      9737      9738
      9735      9734      9737      9739      9735      9734      9737      9740
      9736      9734      9737      9738      9736      9734      9737      9739
      9736      9734      9737      9740      9737      9740      9743      9744
      9737      9740      9743      9745      9737      9740      9743      9746
      9738      9737      9740      9741      9738      9737      9740      9742
      9738      9737      9740      9743      9739      9737      9740      9741
      9739      9737      9740      9742      9739      9737      9740      9743
      9740      9743      9746      9747      9740      9743      9746      9748
      9740      9743      9746      9749      9741      9740      9743      9744
      9741      9740      9743      9745      9741      9740      9743      9746
      9742      9740      9743      9744      9742      9740      9743      9745
      9742      9740      9743      9746      9743      9746      9749      9750
      9743      9746      9749      9751      9743      9746      9749      9752
      9744      9743      9746      9747      9744      9743      9746      9748
      9744      9743      9746      9749      9745      9743      9746      9747
      9745      9743      9746      9748      9745      9743      9746      9749
      9746      9749      9752      9753      9746      9749      9752      9754
      9746      9749      9752      9755      9747      9746      9749      9750
      9747      9746      9749      9751      9747      9746      9749      9752
      9748      9746      9749      9750      9748      9746      9749      9751
      9748      9746      9749      9752      9749      9752      9755      9756
      9749      9752      9755      9757      9749      9752      9755      9758
      9750      9749      9752      9753      9750      9749      9752      9754
      9750      9749      9752      9755      9751      9749      9752      9753
      9751      9749      9752      9754      9751      9749      9752      9755
      9752      9755      9758      9759      9752      9755      9758      9760
      9752      9755      9758      9761      9753      9752      9755      9756
      9753      9752      9755      9757      9753      9752      9755      9758
      9754      9752      9755      9756      9754      9752      9755      9757
      9754      9752      9755      9758      9755      9758      9761      9762
      9755      9758      9761      9763      9755      9758      9761      9764
      9756      9755      9758      9759      9756      9755      9758      9760
      9756      9755      9758      9761      9757      9755      9758      9759
      9757      9755      9758      9760      9757      9755      9758      9761
      9758      9761      9764      9765      9758      9761      9764      9766
      9758      9761      9764      9767      9759      9758      9761      9762
      9759      9758      9761      9763      9759      9758      9761      9764
      9760      9758      9761      9762      9760      9758      9761      9763
      9760      9758      9761      9764      9761      9764      9767      9768
      9761      9764      9767      9769      9761      9764      9767      9770
      9762      9761      9764      9765      9762      9761      9764      9766
      9762      9761      9764      9767      9763      9761      9764      9765
      9763      9761      9764      9766      9763      9761      9764      9767
      9764      9767      9770      9771      9764      9767      9770      9772
      9764      9767      9770      9773      9765      9764      9767      9768
      9765      9764      9767      9769      9765      9764      9767      9770
      9766      9764      9767      9768      9766      9764      9767      9769
      9766      9764      9767      9770      9767      9770      9773      9774
      9767      9770      9773      9775      9767      9770      9773      9776
      9768      9767      9770      9771      9768      9767      9770      9772
      9768      9767      9770      9773      9769      9767      9770      9771
      9769      9767      9770      9772      9769      9767      9770      9773
      9770      9773      9776      9777      9770      9773      9776      9778
      9770      9773      9776      9779      9771      9770      9773      9774
      9771      9770      9773      9775      9771      9770      9773      9776
      9772      9770      9773      9774      9772      9770      9773      9775
      9772      9770      9773      9776      9774      9773      9776      9777
      9774      9773      9776      9778      9774      9773      9776      9779
      9775      9773      9776      9777      9775      9773      9776      9778
      9775      9773      9776      9779      9780      9784      9787      9788
      9780      9784      9787      9818      9780      9826      9823      9818
      9780      9826      9823      9824      9780      9826      9823      9825
      9781      9780      9782      9783      9781      9780      9784      9785
      9781      9780      9784      9786      9781      9780      9784      9787
      9781      9780      9826      9823      9781      9780      9826      9827
      9781      9780      9826      9828      9782      9780      9784      9785
      9782      9780      9784      9786      9782      9780      9784      9787
      9782      9780      9826      9823      9782      9780      9826      9827
      9782      9780      9826      9828      9783      9782      9780      9784
      9783      9782      9780      9826      9784      9780      9826      9823
      9784      9780      9826      9827      9784      9780      9826      9828
      9784      9787      9788      9789      9784      9787      9788      9790
      9784      9787      9818      9816      9784      9787      9818      9819
      9784      9787      9818      9823      9785      9784      9780      9826
      9785      9784      9787      9788      9785      9784      9787      9818
      9786      9784      9780      9826      9786      9784      9787      9788
      9786      9784      9787      9818      9787      9784      9780      9826
      9787      9788      9790      9791      9787      9788      9790      9792
      9787      9788      9790      9793      9787      9818      9816      9793
      9787      9818      9816      9813      9787      9818      9816      9817
      9787      9818      9819      9820      9787      9818      9819      9821
      9787      9818      9819      9822      9787      9818      9823      9824
      9787      9818      9823      9825      9787      9818      9823      9826
      9788      9787      9818      9816      9788      9787      9818      9819
      9788      9787      9818      9823      9788      9790      9793      9794
      9788      9790      9793      9795      9788      9790      9793      9816
      9789      9788      9787      9818      9789      9788      9790      9791
      9789      9788      9790      9792      9789      9788      9790      9793
      9790      9788      9787      9818      9790      9793      9795      9796
      9790      9793      9795      9797      9790      9793      9795      9805
      9790      9793      9816      9813      9790      9793      9816      9817
      9790      9793      9816      9818      9791      9790      9793      9794
      9791      9790      9793      9795      9791      9790      9793      9816
      9792      9790      9793      9794      9792      9790      9793      9795
      9792      9790      9793      9816      9793      9795      9797      9798
      9793      9795      9797      9799      9793      9795      9797      9800
      9793      9795      9805      9803      9793      9795      9805      9806
      9793      9795      9805      9810      9793      9816      9813      9810
      9793      9816      9813      9814      9793      9816      9813      9815
      9793      9816      9818      9819      9793      9816      9818      9823
      9794      9793      9795      9796      9794      9793      9795      9797
      9794      9793      9795      9805      9794      9793      9816      9813
      9794      9793      9816      9817      9794      9793      9816      9818
      9795      9793      9816      9813      9795      9793      9816      9817
      9795      9793      9816      9818      9795      9797      9800      9801
      9795      9797      9800      9802      9795      9797      9800      9803
      9795      9805      9803      9800      9795      9805      9803      9804
      9795      9805      9803      9829      9795      9805      9806      9807
      9795      9805      9806      9808      9795      9805      9806      9809
      9795      9805      9810      9811      9795      9805      9810      9812
      9795      9805      9810      9813      9796      9795      9793      9816
      9796      9795      9797      9798      9796      9795      9797      9799
      9796      9795      9797      9800      9796      9795      9805      9803
      9796      9795      9805      9806      9796      9795      9805      9810
      9797      9795      9793      9816      9797      9795      9805      9803
      9797      9795      9805      9806      9797      9795      9805      9810
      9797      9800      9803      9804      9797      9800      9803      9805
      9797      9800      9803      9829      9798      9797      9795      9805
      9798      9797      9800      9801      9798      9797      9800      9802
      9798      9797      9800      9803      9799      9797      9795      9805
      9799      9797      9800      9801      9799      9797      9800      9802
      9799      9797      9800      9803      9800      9797      9795      9805
      9800      9803      9805      9806      9800      9803      9805      9810
      9800      9803      9829      9830      9800      9803      9829      9831
      9800      9803      9829      9835      9801      9800      9803      9804
      9801      9800      9803      9805      9801      9800      9803      9829
      9802      9800      9803      9804      9802      9800      9803      9805
      9802      9800      9803      9829      9803      9805      9806      9807
      9803      9805      9806      9808      9803      9805      9806      9809
      9803      9805      9810      9811      9803      9805      9810      9812
      9803      9805      9810      9813      9803      9829      9831      9832
      9803      9829      9831      9833      9803      9829      9831      9834
      9803      9829      9835      9836      9803      9829      9835      9837
      9803      9829      9835      9838      9804      9803      9805      9806
      9804      9803      9805      9810      9804      9803      9829      9830
      9804      9803      9829      9831      9804      9803      9829      9835
      9805      9795      9793      9816      9805      9803      9829      9830
      9805      9803      9829      9831      9805      9803      9829      9835
      9805      9810      9813      9814      9805      9810      9813      9815
      9805      9810      9813      9816      9806      9805      9803      9829
      9806      9805      9810      9811      9806      9805      9810      9812
      9806      9805      9810      9813      9807      9806      9805      9810
      9808      9806      9805      9810      9809      9806      9805      9810
      9810      9805      9803      9829      9810      9813      9816      9817
      9810      9813      9816      9818      9811      9810      9813      9814
      9811      9810      9813      9815      9811      9810      9813      9816
      9812      9810      9813      9814      9812      9810      9813      9815
      9812      9810      9813      9816      9813      9816      9818      9819
      9813      9816      9818      9823      9814      9813      9816      9817
      9814      9813      9816      9818      9815      9813      9816      9817
      9815      9813      9816      9818      9816      9818      9819      9820
      9816      9818      9819      9821      9816      9818      9819      9822
      9816      9818      9823      9824      9816      9818      9823      9825
      9816      9818      9823      9826      9817      9816      9818      9819
      9817      9816      9818      9823      9818      9823      9826      9827
      9818      9823      9826      9828      9819      9818      9823      9824
      9819      9818      9823      9825      9819      9818      9823      9826
      9820      9819      9818      9823      9821      9819      9818      9823
      9822      9819      9818      9823      9824      9823      9826      9827
      9824      9823      9826      9828      9825      9823      9826      9827
      9825      9823      9826      9828      9829      9835      9838      9839
      9829      9835      9838      9840      9829      9835      9838      9841
      9830      9829      9831      9832      9830      9829      9831      9833
      9830      9829      9831      9834      9830      9829      9835      9836
      9830      9829      9835      9837      9830      9829      9835      9838
      9831      9829      9835      9836      9831      9829      9835      9837
      9831      9829      9835      9838      9832      9831      9829      9835
      9833      9831      9829      9835      9834      9831      9829      9835
      9835      9838      9841      9842      9835      9838      9841      9843
      9835      9838      9841      9844      9836      9835      9838      9839
      9836      9835      9838      9840      9836      9835      9838      9841
      9837      9835      9838      9839      9837      9835      9838      9840
      9837      9835      9838      9841      9838      9841      9844      9845
      9838      9841      9844      9846      9838      9841      9844      9850
      9839      9838      9841      9842      9839      9838      9841      9843
      9839      9838      9841      9844      9840      9838      9841      9842
      9840      9838      9841      9843      9840      9838      9841      9844
      9841      9844      9846      9847      9841      9844      9846      9848
      9841      9844      9846      9849      9841      9844      9850      9851
      9841      9844      9850      9852      9841      9844      9850      9853
      9842      9841      9844      9845      9842      9841      9844      9846
      9842      9841      9844      9850      9843      9841      9844      9845
      9843      9841      9844      9846      9843      9841      9844      9850
      9845      9844      9846      9847      9845      9844      9846      9848
      9845      9844      9846      9849      9845      9844      9850      9851
      9845      9844      9850      9852      9845      9844      9850      9853
      9846      9844      9850      9851      9846      9844      9850      9852
      9846      9844      9850      9853      9847      9846      9844      9850
      9848      9846      9844      9850      9849      9846      9844      9850
      9854      9855      9870      9871      9854      9855      9870      9872
      9854      9855      9870      9876      9855      9854      9858      9859
      9855      9854      9858      9860      9855      9854      9858      9861
      9855      9854      9862      9863      9855      9854      9862      9864
      9855      9854      9862      9865      9855      9854      9866      9867
      9855      9854      9866      9868      9855      9854      9866      9869
      9855      9870      9876      9873      9856      9855      9854      9858
      9856      9855      9854      9862      9856      9855      9854      9866
      9856      9855      9870      9871      9856      9855      9870      9872
      9856      9855      9870      9876      9857      9855      9854      9858
      9857      9855      9854      9862      9857      9855      9854      9866
      9857      9855      9870      9871      9857      9855      9870      9872
      9857      9855      9870      9876      9858      9854      9855      9870
      9858      9854      9862      9863      9858      9854      9862      9864
      9858      9854      9862      9865      9858      9854      9866      9867
      9858      9854      9866      9868      9858      9854      9866      9869
      9859      9858      9854      9862      9859      9858      9854      9866
      9860      9858      9854      9862      9860      9858      9854      9866
      9861      9858      9854      9862      9861      9858      9854      9866
      9862      9854      9855      9870      9862      9854      9866      9867
      9862      9854      9866      9868      9862      9854      9866      9869
      9863      9862      9854      9866      9864      9862      9854      9866
      9865      9862      9854      9866      9866      9854      9855      9870
      9870      9876      9873      9874      9870      9876      9873      9875
      9870      9876      9873      9877      9871      9870      9876      9873
      9872      9870      9876      9873      9873      9877      9878      9879
      9873      9877      9878      9880      9873      9877      9878      9881
      9874      9873      9877      9878      9875      9873      9877      9878
      9876      9873      9877      9878      9877      9878      9881      9882
      9877      9878      9881      9883      9877      9878      9881      9889
      9878      9881      9883      9884      9878      9881      9889      9890
      9878      9881      9889      9891      9878      9881      9889      9892
      9879      9878      9881      9882      9879      9878      9881      9883
      9879      9878      9881      9889      9880      9878      9881      9882
      9880      9878      9881      9883      9880      9878      9881      9889
      9881      9883      9884      9885      9881      9883      9884      9886
      9881      9889      9892      9893      9882      9881      9883      9884
      9882      9881      9889      9890      9882      9881      9889      9891
      9882      9881      9889      9892      9883      9881      9889      9890
      9883      9881      9889      9891      9883      9881      9889      9892
      9883      9884      9886      9887      9883      9884      9886      9888
      9883      9884      9886      9898      9884      9883      9881      9889
      9884      9886      9898      9899      9884      9886      9898      9900
      9884      9886      9898      9901      9885      9884      9886      9887
      9885      9884      9886      9888      9885      9884      9886      9898
      9886      9898      9901      9902      9886      9898      9901      9903
      9886      9898      9901      9904      9887      9886      9898      9899
      9887      9886      9898      9900      9887      9886      9898      9901
      9888      9886      9898      9899      9888      9886      9898      9900
      9888      9886      9898      9901      9889      9892      9893      9894
      9889      9892      9893      9895      9890      9889      9892      9893
      9891      9889      9892      9893      9892      9893      9895      9896
      9892      9893      9895      9897      9892      9893      9895      9945
      9893      9895      9945      9946      9893      9895      9945      9947
      9893      9895      9945      9948      9894      9893      9895      9896
      9894      9893      9895      9897      9894      9893      9895      9945
      9895      9945      9948      9949      9895      9945      9948      9950
      9895      9945      9948      9951      9896      9895      9945      9946
      9896      9895      9945      9947      9896      9895      9945      9948
      9897      9895      9945      9946      9897      9895      9945      9947
      9897      9895      9945      9948      9898      9901      9904      9905
      9898      9901      9904      9906      9899      9898      9901      9902
      9899      9898      9901      9903      9899      9898      9901      9904
      9900      9898      9901      9902      9900      9898      9901      9903
      9900      9898      9901      9904      9901      9904      9906      9907
      9901      9904      9906      9908      9902      9901      9904      9905
      9902      9901      9904      9906      9903      9901      9904      9905
      9903      9901      9904      9906      9904      9906      9908      9909
      9904      9906      9908      9910      9904      9906      9908      9911
      9905      9904      9906      9907      9905      9904      9906      9908
      9906      9908      9911      9912      9906      9908      9911      9913
      9907      9906      9908      9909      9907      9906      9908      9910
      9907      9906      9908      9911      9908      9911      9913      9914
      9908      9911      9913      9915      9909      9908      9911      9912
      9909      9908      9911      9913      9910      9908      9911      9912
      9910      9908      9911      9913      9911      9913      9915      9916
      9911      9913      9915      9917      9911      9913      9915      9918
      9912      9911      9913      9914      9912      9911      9913      9915
      9913      9915      9918      9919      9913      9915      9918      9920
      9914      9913      9915      9916      9914      9913      9915      9917
      9914      9913      9915      9918      9915      9918      9920      9921
      9915      9918      9920      9922      9916      9915      9918      9919
      9916      9915      9918      9920      9917      9915      9918      9919
      9917      9915      9918      9920      9918      9920      9922      9923
      9918      9920      9922      9924      9918      9920      9922      9925
      9919      9918      9920      9921      9919      9918      9920      9922
      9920      9922      9925      9926      9920      9922      9925      9927
      9921      9920      9922      9923      9921      9920      9922      9924
      9921      9920      9922      9925      9922      9925      9927      9928
      9922      9925      9927      9929      9923      9922      9925      9926
      9923      9922      9925      9927      9924      9922      9925      9926
      9924      9922      9925      9927      9925      9927      9929      9930
      9925      9927      9929      9931      9925      9927      9929      9932
      9926      9925      9927      9928      9926      9925      9927      9929
      9927      9929      9932      9933      9927      9929      9932      9934
      9927      9929      9932      9935      9928      9927      9929      9930
      9928      9927      9929      9931      9928      9927      9929      9932
      9929      9932      9935      9936      9929      9932      9935      9937
      9929      9932      9935      9938      9930      9929      9932      9933
      9930      9929      9932      9934      9930      9929      9932      9935
      9931      9929      9932      9933      9931      9929      9932      9934
      9931      9929      9932      9935      9932      9935      9938      9939
      9932      9935      9938      9940      9932      9935      9938      9941
      9933      9932      9935      9936      9933      9932      9935      9937
      9933      9932      9935      9938      9934      9932      9935      9936
      9934      9932      9935      9937      9934      9932      9935      9938
      9935      9938      9941      9942      9935      9938      9941      9943
      9935      9938      9941      9944      9936      9935      9938      9939
      9936      9935      9938      9940      9936      9935      9938      9941
      9937      9935      9938      9939      9937      9935      9938      9940
      9937      9935      9938      9941      9939      9938      9941      9942
      9939      9938      9941      9943      9939      9938      9941      9944
      9940      9938      9941      9942      9940      9938      9941      9943
      9940      9938      9941      9944      9945      9948      9951      9952
      9945      9948      9951      9953      9945      9948      9951      9954
      9946      9945      9948      9949      9946      9945      9948      9950
      9946      9945      9948      9951      9947      9945      9948      9949
      9947      9945      9948      9950      9947      9945      9948      9951
      9948      9951      9954      9955      9948      9951      9954      9956
      9948      9951      9954      9957      9949      9948      9951      9952
      9949      9948      9951      9953      9949      9948      9951      9954
      9950      9948      9951      9952      9950      9948      9951      9953
      9950      9948      9951      9954      9951      9954      9957      9958
      9951      9954      9957      9959      9951      9954      9957      9960
      9952      9951      9954      9955      9952      9951      9954      9956
      9952      9951      9954      9957      9953      9951      9954      9955
      9953      9951      9954      9956      9953      9951      9954      9957
      9954      9957      9960      9961      9954      9957      9960      9962
      9954      9957      9960      9963      9955      9954      9957      9958
      9955      9954      9957      9959      9955      9954      9957      9960
      9956      9954      9957      9958      9956      9954      9957      9959
      9956      9954      9957      9960      9957      9960      9963      9964
      9957      9960      9963      9965      9957      9960      9963      9966
      9958      9957      9960      9961      9958      9957      9960      9962
      9958      9957      9960      9963      9959      9957      9960      9961
      9959      9957      9960      9962      9959      9957      9960      9963
      9960      9963      9966      9967      9960      9963      9966      9968
      9960      9963      9966      9969      9961      9960      9963      9964
      9961      9960      9963      9965      9961      9960      9963      9966
      9962      9960      9963      9964      9962      9960      9963      9965
      9962      9960      9963      9966      9963      9966      9969      9970
      9963      9966      9969      9971      9963      9966      9969      9972
      9964      9963      9966      9967      9964      9963      9966      9968
      9964      9963      9966      9969      9965      9963      9966      9967
      9965      9963      9966      9968      9965      9963      9966      9969
      9966      9969      9972      9973      9966      9969      9972      9974
      9966      9969      9972      9975      9967      9966      9969      9970
      9967      9966      9969      9971      9967      9966      9969      9972
      9968      9966      9969      9970      9968      9966      9969      9971
      9968      9966      9969      9972      9969      9972      9975      9976
      9969      9972      9975      9977      9969      9972      9975      9978
      9970      9969      9972      9973      9970      9969      9972      9974
      9970      9969      9972      9975      9971      9969      9972      9973
      9971      9969      9972      9974      9971      9969      9972      9975
      9972      9975      9978      9979      9972      9975      9978      9980
      9972      9975      9978      9981      9973      9972      9975      9976
      9973      9972      9975      9977      9973      9972      9975      9978
      9974      9972      9975      9976      9974      9972      9975      9977
      9974      9972      9975      9978      9975      9978      9981      9982
      9975      9978      9981      9983      9975      9978      9981      9984
      9976      9975      9978      9979      9976      9975      9978      9980
      9976      9975      9978      9981      9977      9975      9978      9979
      9977      9975      9978      9980      9977      9975      9978      9981
      9978      9981      9984      9985      9978      9981      9984      9986
      9978      9981      9984      9987      9979      9978      9981      9982
      9979      9978      9981      9983      9979      9978      9981      9984
      9980      9978      9981      9982      9980      9978      9981      9983
      9980      9978      9981      9984      9981      9984      9987      9988
      9981      9984      9987      9989      9981      9984      9987      9990
      9982      9981      9984      9985      9982      9981      9984      9986
      9982      9981      9984      9987      9983      9981      9984      9985
      9983      9981      9984      9986      9983      9981      9984      9987
      9984      9987      9990      9991      9984      9987      9990      9992
      9984      9987      9990      9993      9985      9984      9987      9988
      9985      9984      9987      9989      9985      9984      9987      9990
      9986      9984      9987      9988      9986      9984      9987      9989
      9986      9984      9987      9990      9988      9987      9990      9991
      9988      9987      9990      9992      9988      9987      9990      9993
      9989      9987      9990      9991      9989      9987      9990      9992
      9989      9987      9990      9993      9994      9998     10001     10002
      9994      9998     10001     10003      9994      9998     10001     10007
      9995      9994      9998      9999      9995      9994      9998     10000
      9995      9994      9998     10001      9996      9994      9998      9999
      9996      9994      9998     10000      9996      9994      9998     10001
      9997      9994      9998      9999      9997      9994      9998     10000
      9997      9994      9998     10001      9998     10001     10007     10004
      9999      9998     10001     10002      9999      9998     10001     10003
      9999      9998     10001     10007     10000      9998     10001     10002
     10000      9998     10001     10003     10000      9998     10001     10007
     10001     10007     10004     10005     10001     10007     10004     10006
     10001     10007     10004     10008     10002     10001     10007     10004
     10003     10001     10007     10004     10004     10008     10009     10010
     10004     10008     10009     10011     10004     10008     10009     10012
     10005     10004     10008     10009     10006     10004     10008     10009
     10007     10004     10008     10009     10008     10009     10012     10013
     10008     10009     10012     10014     10008     10009     10012     10020
     10009     10012     10014     10015     10009     10012     10020     10021
     10009     10012     10020     10022     10009     10012     10020     10023
     10010     10009     10012     10013     10010     10009     10012     10014
     10010     10009     10012     10020     10011     10009     10012     10013
     10011     10009     10012     10014     10011     10009     10012     10020
     10012     10014     10015     10016     10012     10014     10015     10017
     10012     10020     10023     10024     10013     10012     10014     10015
     10013     10012     10020     10021     10013     10012     10020     10022
     10013     10012     10020     10023     10014     10012     10020     10021
     10014     10012     10020     10022     10014     10012     10020     10023
     10014     10015     10017     10018     10014     10015     10017     10019
     10014     10015     10017     10029     10015     10014     10012     10020
     10015     10017     10029     10030     10015     10017     10029     10031
     10015     10017     10029     10032     10016     10015     10017     10018
     10016     10015     10017     10019     10016     10015     10017     10029
     10017     10029     10032     10033     10017     10029     10032     10034
     10017     10029     10032     10035     10018     10017     10029     10030
     10018     10017     10029     10031     10018     10017     10029     10032
     10019     10017     10029     10030     10019     10017     10029     10031
     10019     10017     10029     10032     10020     10023     10024     10025
     10020     10023     10024     10026     10021     10020     10023     10024
     10022     10020     10023     10024     10023     10024     10026     10027
     10023     10024     10026     10028     10023     10024     10026     10076
     10024     10026     10076     10077     10024     10026     10076     10078
     10024     10026     10076     10079     10025     10024     10026     10027
     10025     10024     10026     10028     10025     10024     10026     10076
     10026     10076     10079     10080     10026     10076     10079     10081
     10026     10076     10079     10082     10027     10026     10076     10077
     10027     10026     10076     10078     10027     10026     10076     10079
     10028     10026     10076     10077     10028     10026     10076     10078
     10028     10026     10076     10079     10029     10032     10035     10036
     10029     10032     10035     10037     10030     10029     10032     10033
     10030     10029     10032     10034     10030     10029     10032     10035
     10031     10029     10032     10033     10031     10029     10032     10034
     10031     10029     10032     10035     10032     10035     10037     10038
     10032     10035     10037     10039     10033     10032     10035     10036
     10033     10032     10035     10037     10034     10032     10035     10036
     10034     10032     10035     10037     10035     10037     10039     10040
     10035     10037     10039     10041     10035     10037     10039     10042
     10036     10035     10037     10038     10036     10035     10037     10039
     10037     10039     10042     10043     10037     10039     10042     10044
     10038     10037     10039     10040     10038     10037     10039     10041
     10038     10037     10039     10042     10039     10042     10044     10045
     10039     10042     10044     10046     10040     10039     10042     10043
     10040     10039     10042     10044     10041     10039     10042     10043
     10041     10039     10042     10044     10042     10044     10046     10047
     10042     10044     10046     10048     10042     10044     10046     10049
     10043     10042     10044     10045     10043     10042     10044     10046
     10044     10046     10049     10050     10044     10046     10049     10051
     10045     10044     10046     10047     10045     10044     10046     10048
     10045     10044     10046     10049     10046     10049     10051     10052
     10046     10049     10051     10053     10047     10046     10049     10050
     10047     10046     10049     10051     10048     10046     10049     10050
     10048     10046     10049     10051     10049     10051     10053     10054
     10049     10051     10053     10055     10049     10051     10053     10056
     10050     10049     10051     10052     10050     10049     10051     10053
     10051     10053     10056     10057     10051     10053     10056     10058
     10052     10051     10053     10054     10052     10051     10053     10055
     10052     10051     10053     10056     10053     10056     10058     10059
     10053     10056     10058     10060     10054     10053     10056     10057
     10054     10053     10056     10058     10055     10053     10056     10057
     10055     10053     10056     10058     10056     10058     10060     10061
     10056     10058     10060     10062     10056     10058     10060     10063
     10057     10056     10058     10059     10057     10056     10058     10060
     10058     10060     10063     10064     10058     10060     10063     10065
     10058     10060     10063     10066     10059     10058     10060     10061
     10059     10058     10060     10062     10059     10058     10060     10063
     10060     10063     10066     10067     10060     10063     10066     10068
     10060     10063     10066     10069     10061     10060     10063     10064
     10061     10060     10063     10065     10061     10060     10063     10066
     10062     10060     10063     10064     10062     10060     10063     10065
     10062     10060     10063     10066     10063     10066     10069     10070
     10063     10066     10069     10071     10063     10066     10069     10072
     10064     10063     10066     10067     10064     10063     10066     10068
     10064     10063     10066     10069     10065     10063     10066     10067
     10065     10063     10066     10068     10065     10063     10066     10069
     10066     10069     10072     10073     10066     10069     10072     10074
     10066     10069     10072     10075     10067     10066     10069     10070
     10067     10066     10069     10071     10067     10066     10069     10072
     10068     10066     10069     10070     10068     10066     10069     10071
     10068     10066     10069     10072     10070     10069     10072     10073
     10070     10069     10072     10074     10070     10069     10072     10075
     10071     10069     10072     10073     10071     10069     10072     10074
     10071     10069     10072     10075     10076     10079     10082     10083
     10076     10079     10082     10084     10076     10079     10082     10085
     10077     10076     10079     10080     10077     10076     10079     10081
     10077     10076     10079     10082     10078     10076     10079     10080
     10078     10076     10079     10081     10078     10076     10079     10082
     10079     10082     10085     10086     10079     10082     10085     10087
     10079     10082     10085     10088     10080     10079     10082     10083
     10080     10079     10082     10084     10080     10079     10082     10085
     10081     10079     10082     10083     10081     10079     10082     10084
     10081     10079     10082     10085     10082     10085     10088     10089
     10082     10085     10088     10090     10082     10085     10088     10091
     10083     10082     10085     10086     10083     10082     10085     10087
     10083     10082     10085     10088     10084     10082     10085     10086
     10084     10082     10085     10087     10084     10082     10085     10088
     10085     10088     10091     10092     10085     10088     10091     10093
     10085     10088     10091     10094     10086     10085     10088     10089
     10086     10085     10088     10090     10086     10085     10088     10091
     10087     10085     10088     10089     10087     10085     10088     10090
     10087     10085     10088     10091     10088     10091     10094     10095
     10088     10091     10094     10096     10088     10091     10094     10097
     10089     10088     10091     10092     10089     10088     10091     10093
     10089     10088     10091     10094     10090     10088     10091     10092
     10090     10088     10091     10093     10090     10088     10091     10094
     10091     10094     10097     10098     10091     10094     10097     10099
     10091     10094     10097     10100     10092     10091     10094     10095
     10092     10091     10094     10096     10092     10091     10094     10097
     10093     10091     10094     10095     10093     10091     10094     10096
     10093     10091     10094     10097     10094     10097     10100     10101
     10094     10097     10100     10102     10094     10097     10100     10103
     10095     10094     10097     10098     10095     10094     10097     10099
     10095     10094     10097     10100     10096     10094     10097     10098
     10096     10094     10097     10099     10096     10094     10097     10100
     10097     10100     10103     10104     10097     10100     10103     10105
     10097     10100     10103     10106     10098     10097     10100     10101
     10098     10097     10100     10102     10098     10097     10100     10103
     10099     10097     10100     10101     10099     10097     10100     10102
     10099     10097     10100     10103     10100     10103     10106     10107
     10100     10103     10106     10108     10100     10103     10106     10109
     10101     10100     10103     10104     10101     10100     10103     10105
     10101     10100     10103     10106     10102     10100     10103     10104
     10102     10100     10103     10105     10102     10100     10103     10106
     10103     10106     10109     10110     10103     10106     10109     10111
     10103     10106     10109     10112     10104     10103     10106     10107
     10104     10103     10106     10108     10104     10103     10106     10109
     10105     10103     10106     10107     10105     10103     10106     10108
     10105     10103     10106     10109     10106     10109     10112     10113
     10106     10109     10112     10114     10106     10109     10112     10115
     10107     10106     10109     10110     10107     10106     10109     10111
     10107     10106     10109     10112     10108     10106     10109     10110
     10108     10106     10109     10111     10108     10106     10109     10112
     10109     10112     10115     10116     10109     10112     10115     10117
     10109     10112     10115     10118     10110     10109     10112     10113
     10110     10109     10112     10114     10110     10109     10112     10115
     10111     10109     10112     10113     10111     10109     10112     10114
     10111     10109     10112     10115     10112     10115     10118     10119
     10112     10115     10118     10120     10112     10115     10118     10121
     10113     10112     10115     10116     10113     10112     10115     10117
     10113     10112     10115     10118     10114     10112     10115     10116
     10114     10112     10115     10117     10114     10112     10115     10118
     10115     10118     10121     10122     10115     10118     10121     10123
     10115     10118     10121     10124     10116     10115     10118     10119
     10116     10115     10118     10120     10116     10115     10118     10121
     10117     10115     10118     10119     10117     10115     10118     10120
     10117     10115     10118     10121     10119     10118     10121     10122
     10119     10118     10121     10123     10119     10118     10121     10124
     10120     10118     10121     10122     10120     10118     10121     10123
     10120     10118     10121     10124     10125     10129     10132     10133
     10125     10129     10132     10134     10125     10129     10132     10138
     10126     10125     10129     10130     10126     10125     10129     10131
     10126     10125     10129     10132     10127     10125     10129     10130
     10127     10125     10129     10131     10127     10125     10129     10132
     10128     10125     10129     10130     10128     10125     10129     10131
     10128     10125     10129     10132     10129     10132     10138     10135
     10130     10129     10132     10133     10130     10129     10132     10134
     10130     10129     10132     10138     10131     10129     10132     10133
     10131     10129     10132     10134     10131     10129     10132     10138
     10132     10138     10135     10136     10132     10138     10135     10137
     10132     10138     10135     10139     10133     10132     10138     10135
     10134     10132     10138     10135     10135     10139     10140     10141
     10135     10139     10140     10142     10135     10139     10140     10143
     10136     10135     10139     10140     10137     10135     10139     10140
     10138     10135     10139     10140     10139     10140     10143     10144
     10139     10140     10143     10145     10139     10140     10143     10151
     10140     10143     10145     10146     10140     10143     10151     10152
     10140     10143     10151     10153     10140     10143     10151     10154
     10141     10140     10143     10144     10141     10140     10143     10145
     10141     10140     10143     10151     10142     10140     10143     10144
     10142     10140     10143     10145     10142     10140     10143     10151
     10143     10145     10146     10147     10143     10145     10146     10148
     10143     10151     10154     10155     10144     10143     10145     10146
     10144     10143     10151     10152     10144     10143     10151     10153
     10144     10143     10151     10154     10145     10143     10151     10152
     10145     10143     10151     10153     10145     10143     10151     10154
     10145     10146     10148     10149     10145     10146     10148     10150
     10145     10146     10148     10160     10146     10145     10143     10151
     10146     10148     10160     10161     10146     10148     10160     10162
     10146     10148     10160     10163     10147     10146     10148     10149
     10147     10146     10148     10150     10147     10146     10148     10160
     10148     10160     10163     10164     10148     10160     10163     10165
     10148     10160     10163     10166     10149     10148     10160     10161
     10149     10148     10160     10162     10149     10148     10160     10163
     10150     10148     10160     10161     10150     10148     10160     10162
     10150     10148     10160     10163     10151     10154     10155     10156
     10151     10154     10155     10157     10152     10151     10154     10155
     10153     10151     10154     10155     10154     10155     10157     10158
     10154     10155     10157     10159     10154     10155     10157     10207
     10155     10157     10207     10208     10155     10157     10207     10209
     10155     10157     10207     10210     10156     10155     10157     10158
     10156     10155     10157     10159     10156     10155     10157     10207
     10157     10207     10210     10211     10157     10207     10210     10212
     10157     10207     10210     10213     10158     10157     10207     10208
     10158     10157     10207     10209     10158     10157     10207     10210
     10159     10157     10207     10208     10159     10157     10207     10209
     10159     10157     10207     10210     10160     10163     10166     10167
     10160     10163     10166     10168     10161     10160     10163     10164
     10161     10160     10163     10165     10161     10160     10163     10166
     10162     10160     10163     10164     10162     10160     10163     10165
     10162     10160     10163     10166     10163     10166     10168     10169
     10163     10166     10168     10170     10164     10163     10166     10167
     10164     10163     10166     10168     10165     10163     10166     10167
     10165     10163     10166     10168     10166     10168     10170     10171
     10166     10168     10170     10172     10166     10168     10170     10173
     10167     10166     10168     10169     10167     10166     10168     10170
     10168     10170     10173     10174     10168     10170     10173     10175
     10169     10168     10170     10171     10169     10168     10170     10172
     10169     10168     10170     10173     10170     10173     10175     10176
     10170     10173     10175     10177     10171     10170     10173     10174
     10171     10170     10173     10175     10172     10170     10173     10174
     10172     10170     10173     10175     10173     10175     10177     10178
     10173     10175     10177     10179     10173     10175     10177     10180
     10174     10173     10175     10176     10174     10173     10175     10177
     10175     10177     10180     10181     10175     10177     10180     10182
     10176     10175     10177     10178     10176     10175     10177     10179
     10176     10175     10177     10180     10177     10180     10182     10183
     10177     10180     10182     10184     10178     10177     10180     10181
     10178     10177     10180     10182     10179     10177     10180     10181
     10179     10177     10180     10182     10180     10182     10184     10185
     10180     10182     10184     10186     10180     10182     10184     10187
     10181     10180     10182     10183     10181     10180     10182     10184
     10182     10184     10187     10188     10182     10184     10187     10189
     10183     10182     10184     10185     10183     10182     10184     10186
     10183     10182     10184     10187     10184     10187     10189     10190
     10184     10187     10189     10191     10185     10184     10187     10188
     10185     10184     10187     10189     10186     10184     10187     10188
     10186     10184     10187     10189     10187     10189     10191     10192
     10187     10189     10191     10193     10187     10189     10191     10194
     10188     10187     10189     10190     10188     10187     10189     10191
     10189     10191     10194     10195     10189     10191     10194     10196
     10189     10191     10194     10197     10190     10189     10191     10192
     10190     10189     10191     10193     10190     10189     10191     10194
     10191     10194     10197     10198     10191     10194     10197     10199
     10191     10194     10197     10200     10192     10191     10194     10195
     10192     10191     10194     10196     10192     10191     10194     10197
     10193     10191     10194     10195     10193     10191     10194     10196
     10193     10191     10194     10197     10194     10197     10200     10201
     10194     10197     10200     10202     10194     10197     10200     10203
     10195     10194     10197     10198     10195     10194     10197     10199
     10195     10194     10197     10200     10196     10194     10197     10198
     10196     10194     10197     10199     10196     10194     10197     10200
     10197     10200     10203     10204     10197     10200     10203     10205
     10197     10200     10203     10206     10198     10197     10200     10201
     10198     10197     10200     10202     10198     10197     10200     10203
     10199     10197     10200     10201     10199     10197     10200     10202
     10199     10197     10200     10203     10201     10200     10203     10204
     10201     10200     10203     10205     10201     10200     10203     10206
     10202     10200     10203     10204     10202     10200     10203     10205
     10202     10200     10203     10206     10207     10210     10213     10214
     10207     10210     10213     10215     10207     10210     10213     10216
     10208     10207     10210     10211     10208     10207     10210     10212
     10208     10207     10210     10213     10209     10207     10210     10211
     10209     10207     10210     10212     10209     10207     10210     10213
     10210     10213     10216     10217     10210     10213     10216     10218
     10210     10213     10216     10219     10211     10210     10213     10214
     10211     10210     10213     10215     10211     10210     10213     10216
     10212     10210     10213     10214     10212     10210     10213     10215
     10212     10210     10213     10216     10213     10216     10219     10220
     10213     10216     10219     10221     10213     10216     10219     10222
     10214     10213     10216     10217     10214     10213     10216     10218
     10214     10213     10216     10219     10215     10213     10216     10217
     10215     10213     10216     10218     10215     10213     10216     10219
     10216     10219     10222     10223     10216     10219     10222     10224
     10216     10219     10222     10225     10217     10216     10219     10220
     10217     10216     10219     10221     10217     10216     10219     10222
     10218     10216     10219     10220     10218     10216     10219     10221
     10218     10216     10219     10222     10219     10222     10225     10226
     10219     10222     10225     10227     10219     10222     10225     10228
     10220     10219     10222     10223     10220     10219     10222     10224
     10220     10219     10222     10225     10221     10219     10222     10223
     10221     10219     10222     10224     10221     10219     10222     10225
     10222     10225     10228     10229     10222     10225     10228     10230
     10222     10225     10228     10231     10223     10222     10225     10226
     10223     10222     10225     10227     10223     10222     10225     10228
     10224     10222     10225     10226     10224     10222     10225     10227
     10224     10222     10225     10228     10225     10228     10231     10232
     10225     10228     10231     10233     10225     10228     10231     10234
     10226     10225     10228     10229     10226     10225     10228     10230
     10226     10225     10228     10231     10227     10225     10228     10229
     10227     10225     10228     10230     10227     10225     10228     10231
     10228     10231     10234     10235     10228     10231     10234     10236
     10228     10231     10234     10237     10229     10228     10231     10232
     10229     10228     10231     10233     10229     10228     10231     10234
     10230     10228     10231     10232     10230     10228     10231     10233
     10230     10228     10231     10234     10231     10234     10237     10238
     10231     10234     10237     10239     10231     10234     10237     10240
     10232     10231     10234     10235     10232     10231     10234     10236
     10232     10231     10234     10237     10233     10231     10234     10235
     10233     10231     10234     10236     10233     10231     10234     10237
     10234     10237     10240     10241     10234     10237     10240     10242
     10234     10237     10240     10243     10235     10234     10237     10238
     10235     10234     10237     10239     10235     10234     10237     10240
     10236     10234     10237     10238     10236     10234     10237     10239
     10236     10234     10237     10240     10237     10240     10243     10244
     10237     10240     10243     10245     10237     10240     10243     10246
     10238     10237     10240     10241     10238     10237     10240     10242
     10238     10237     10240     10243     10239     10237     10240     10241
     10239     10237     10240     10242     10239     10237     10240     10243
     10240     10243     10246     10247     10240     10243     10246     10248
     10240     10243     10246     10249     10241     10240     10243     10244
     10241     10240     10243     10245     10241     10240     10243     10246
     10242     10240     10243     10244     10242     10240     10243     10245
     10242     10240     10243     10246     10243     10246     10249     10250
     10243     10246     10249     10251     10243     10246     10249     10252
     10244     10243     10246     10247     10244     10243     10246     10248
     10244     10243     10246     10249     10245     10243     10246     10247
     10245     10243     10246     10248     10245     10243     10246     10249
     10246     10249     10252     10253     10246     10249     10252     10254
     10246     10249     10252     10255     10247     10246     10249     10250
     10247     10246     10249     10251     10247     10246     10249     10252
     10248     10246     10249     10250     10248     10246     10249     10251
     10248     10246     10249     10252     10250     10249     10252     10253
     10250     10249     10252     10254     10250     10249     10252     10255
     10251     10249     10252     10253     10251     10249     10252     10254
     10251     10249     10252     10255     10256     10260     10263     10264
     10256     10260     10263     10265     10256     10260     10263     10269
     10257     10256     10260     10261     10257     10256     10260     10262
     10257     10256     10260     10263     10258     10256     10260     10261
     10258     10256     10260     10262     10258     10256     10260     10263
     10259     10256     10260     10261     10259     10256     10260     10262
     10259     10256     10260     10263     10260     10263     10269     10266
     10261     10260     10263     10264     10261     10260     10263     10265
     10261     10260     10263     10269     10262     10260     10263     10264
     10262     10260     10263     10265     10262     10260     10263     10269
     10263     10269     10266     10267     10263     10269     10266     10268
     10263     10269     10266     10270     10264     10263     10269     10266
     10265     10263     10269     10266     10266     10270     10271     10272
     10266     10270     10271     10273     10266     10270     10271     10274
     10267     10266     10270     10271     10268     10266     10270     10271
     10269     10266     10270     10271     10270     10271     10274     10275
     10270     10271     10274     10276     10270     10271     10274     10282
     10271     10274     10276     10277     10271     10274     10282     10283
     10271     10274     10282     10284     10271     10274     10282     10285
     10272     10271     10274     10275     10272     10271     10274     10276
     10272     10271     10274     10282     10273     10271     10274     10275
     10273     10271     10274     10276     10273     10271     10274     10282
     10274     10276     10277     10278     10274     10276     10277     10279
     10274     10282     10285     10286     10275     10274     10276     10277
     10275     10274     10282     10283     10275     10274     10282     10284
     10275     10274     10282     10285     10276     10274     10282     10283
     10276     10274     10282     10284     10276     10274     10282     10285
     10276     10277     10279     10280     10276     10277     10279     10281
     10276     10277     10279     10291     10277     10276     10274     10282
     10277     10279     10291     10292     10277     10279     10291     10293
     10277     10279     10291     10294     10278     10277     10279     10280
     10278     10277     10279     10281     10278     10277     10279     10291
     10279     10291     10294     10295     10279     10291     10294     10296
     10279     10291     10294     10297     10280     10279     10291     10292
     10280     10279     10291     10293     10280     10279     10291     10294
     10281     10279     10291     10292     10281     10279     10291     10293
     10281     10279     10291     10294     10282     10285     10286     10287
     10282     10285     10286     10288     10283     10282     10285     10286
     10284     10282     10285     10286     10285     10286     10288     10289
     10285     10286     10288     10290     10285     10286     10288     10338
     10286     10288     10338     10339     10286     10288     10338     10340
     10286     10288     10338     10341     10287     10286     10288     10289
     10287     10286     10288     10290     10287     10286     10288     10338
     10288     10338     10341     10342     10288     10338     10341     10343
     10288     10338     10341     10344     10289     10288     10338     10339
     10289     10288     10338     10340     10289     10288     10338     10341
     10290     10288     10338     10339     10290     10288     10338     10340
     10290     10288     10338     10341     10291     10294     10297     10298
     10291     10294     10297     10299     10292     10291     10294     10295
     10292     10291     10294     10296     10292     10291     10294     10297
     10293     10291     10294     10295     10293     10291     10294     10296
     10293     10291     10294     10297     10294     10297     10299     10300
     10294     10297     10299     10301     10295     10294     10297     10298
     10295     10294     10297     10299     10296     10294     10297     10298
     10296     10294     10297     10299     10297     10299     10301     10302
     10297     10299     10301     10303     10297     10299     10301     10304
     10298     10297     10299     10300     10298     10297     10299     10301
     10299     10301     10304     10305     10299     10301     10304     10306
     10300     10299     10301     10302     10300     10299     10301     10303
     10300     10299     10301     10304     10301     10304     10306     10307
     10301     10304     10306     10308     10302     10301     10304     10305
     10302     10301     10304     10306     10303     10301     10304     10305
     10303     10301     10304     10306     10304     10306     10308     10309
     10304     10306     10308     10310     10304     10306     10308     10311
     10305     10304     10306     10307     10305     10304     10306     10308
     10306     10308     10311     10312     10306     10308     10311     10313
     10307     10306     10308     10309     10307     10306     10308     10310
     10307     10306     10308     10311     10308     10311     10313     10314
     10308     10311     10313     10315     10309     10308     10311     10312
     10309     10308     10311     10313     10310     10308     10311     10312
     10310     10308     10311     10313     10311     10313     10315     10316
     10311     10313     10315     10317     10311     10313     10315     10318
     10312     10311     10313     10314     10312     10311     10313     10315
     10313     10315     10318     10319     10313     10315     10318     10320
     10314     10313     10315     10316     10314     10313     10315     10317
     10314     10313     10315     10318     10315     10318     10320     10321
     10315     10318     10320     10322     10316     10315     10318     10319
     10316     10315     10318     10320     10317     10315     10318     10319
     10317     10315     10318     10320     10318     10320     10322     10323
     10318     10320     10322     10324     10318     10320     10322     10325
     10319     10318     10320     10321     10319     10318     10320     10322
     10320     10322     10325     10326     10320     10322     10325     10327
     10320     10322     10325     10328     10321     10320     10322     10323
     10321     10320     10322     10324     10321     10320     10322     10325
     10322     10325     10328     10329     10322     10325     10328     10330
     10322     10325     10328     10331     10323     10322     10325     10326
     10323     10322     10325     10327     10323     10322     10325     10328
     10324     10322     10325     10326     10324     10322     10325     10327
     10324     10322     10325     10328     10325     10328     10331     10332
     10325     10328     10331     10333     10325     10328     10331     10334
     10326     10325     10328     10329     10326     10325     10328     10330
     10326     10325     10328     10331     10327     10325     10328     10329
     10327     10325     10328     10330     10327     10325     10328     10331
     10328     10331     10334     10335     10328     10331     10334     10336
     10328     10331     10334     10337     10329     10328     10331     10332
     10329     10328     10331     10333     10329     10328     10331     10334
     10330     10328     10331     10332     10330     10328     10331     10333
     10330     10328     10331     10334     10332     10331     10334     10335
     10332     10331     10334     10336     10332     10331     10334     10337
     10333     10331     10334     10335     10333     10331     10334     10336
     10333     10331     10334     10337     10338     10341     10344     10345
     10338     10341     10344     10346     10338     10341     10344     10347
     10339     10338     10341     10342     10339     10338     10341     10343
     10339     10338     10341     10344     10340     10338     10341     10342
     10340     10338     10341     10343     10340     10338     10341     10344
     10341     10344     10347     10348     10341     10344     10347     10349
     10341     10344     10347     10350     10342     10341     10344     10345
     10342     10341     10344     10346     10342     10341     10344     10347
     10343     10341     10344     10345     10343     10341     10344     10346
     10343     10341     10344     10347     10344     10347     10350     10351
     10344     10347     10350     10352     10344     10347     10350     10353
     10345     10344     10347     10348     10345     10344     10347     10349
     10345     10344     10347     10350     10346     10344     10347     10348
     10346     10344     10347     10349     10346     10344     10347     10350
     10347     10350     10353     10354     10347     10350     10353     10355
     10347     10350     10353     10356     10348     10347     10350     10351
     10348     10347     10350     10352     10348     10347     10350     10353
     10349     10347     10350     10351     10349     10347     10350     10352
     10349     10347     10350     10353     10350     10353     10356     10357
     10350     10353     10356     10358     10350     10353     10356     10359
     10351     10350     10353     10354     10351     10350     10353     10355
     10351     10350     10353     10356     10352     10350     10353     10354
     10352     10350     10353     10355     10352     10350     10353     10356
     10353     10356     10359     10360     10353     10356     10359     10361
     10353     10356     10359     10362     10354     10353     10356     10357
     10354     10353     10356     10358     10354     10353     10356     10359
     10355     10353     10356     10357     10355     10353     10356     10358
     10355     10353     10356     10359     10356     10359     10362     10363
     10356     10359     10362     10364     10356     10359     10362     10365
     10357     10356     10359     10360     10357     10356     10359     10361
     10357     10356     10359     10362     10358     10356     10359     10360
     10358     10356     10359     10361     10358     10356     10359     10362
     10359     10362     10365     10366     10359     10362     10365     10367
     10359     10362     10365     10368     10360     10359     10362     10363
     10360     10359     10362     10364     10360     10359     10362     10365
     10361     10359     10362     10363     10361     10359     10362     10364
     10361     10359     10362     10365     10362     10365     10368     10369
     10362     10365     10368     10370     10362     10365     10368     10371
     10363     10362     10365     10366     10363     10362     10365     10367
     10363     10362     10365     10368     10364     10362     10365     10366
     10364     10362     10365     10367     10364     10362     10365     10368
     10365     10368     10371     10372     10365     10368     10371     10373
     10365     10368     10371     10374     10366     10365     10368     10369
     10366     10365     10368     10370     10366     10365     10368     10371
     10367     10365     10368     10369     10367     10365     10368     10370
     10367     10365     10368     10371     10368     10371     10374     10375
     10368     10371     10374     10376     10368     10371     10374     10377
     10369     10368     10371     10372     10369     10368     10371     10373
     10369     10368     10371     10374     10370     10368     10371     10372
     10370     10368     10371     10373     10370     10368     10371     10374
     10371     10374     10377     10378     10371     10374     10377     10379
     10371     10374     10377     10380     10372     10371     10374     10375
     10372     10371     10374     10376     10372     10371     10374     10377
     10373     10371     10374     10375     10373     10371     10374     10376
     10373     10371     10374     10377     10374     10377     10380     10381
     10374     10377     10380     10382     10374     10377     10380     10383
     10375     10374     10377     10378     10375     10374     10377     10379
     10375     10374     10377     10380     10376     10374     10377     10378
     10376     10374     10377     10379     10376     10374     10377     10380
     10377     10380     10383     10384     10377     10380     10383     10385
     10377     10380     10383     10386     10378     10377     10380     10381
     10378     10377     10380     10382     10378     10377     10380     10383
     10379     10377     10380     10381     10379     10377     10380     10382
     10379     10377     10380     10383     10381     10380     10383     10384
     10381     10380     10383     10385     10381     10380     10383     10386
     10382     10380     10383     10384     10382     10380     10383     10385
     10382     10380     10383     10386     10387     10391     10393     10394
     10387     10391     10393     10395     10387     10391     10396     10397
     10387     10391     10396     10398     10387     10391     10396     10402
     10388     10387     10391     10392     10388     10387     10391     10393
     10388     10387     10391     10396     10389     10387     10391     10392
     10389     10387     10391     10393     10389     10387     10391     10396
     10390     10387     10391     10392     10390     10387     10391     10393
     10390     10387     10391     10396     10391     10396     10402     10399
     10392     10391     10393     10394     10392     10391     10393     10395
     10392     10391     10396     10397     10392     10391     10396     10398
     10392     10391     10396     10402     10393     10391     10396     10397
     10393     10391     10396     10398     10393     10391     10396     10402
     10394     10393     10391     10396     10395     10393     10391     10396
     10396     10402     10399     10400     10396     10402     10399     10401
     10396     10402     10399     10403     10397     10396     10402     10399
     10398     10396     10402     10399     10399     10403     10404     10405
     10399     10403     10404     10406     10399     10403     10404     10407
     10400     10399     10403     10404     10401     10399     10403     10404
     10402     10399     10403     10404     10403     10404     10407     10408
     10403     10404     10407     10409     10403     10404     10407     10415
     10404     10407     10409     10410     10404     10407     10415     10416
     10404     10407     10415     10417     10404     10407     10415     10418
     10405     10404     10407     10408     10405     10404     10407     10409
     10405     10404     10407     10415     10406     10404     10407     10408
     10406     10404     10407     10409     10406     10404     10407     10415
     10407     10409     10410     10411     10407     10409     10410     10412
     10407     10415     10418     10419     10408     10407     10409     10410
     10408     10407     10415     10416     10408     10407     10415     10417
     10408     10407     10415     10418     10409     10407     10415     10416
     10409     10407     10415     10417     10409     10407     10415     10418
     10409     10410     10412     10413     10409     10410     10412     10414
     10409     10410     10412     10424     10410     10409     10407     10415
     10410     10412     10424     10425     10410     10412     10424     10426
     10410     10412     10424     10427     10411     10410     10412     10413
     10411     10410     10412     10414     10411     10410     10412     10424
     10412     10424     10427     10428     10412     10424     10427     10429
     10412     10424     10427     10430     10413     10412     10424     10425
     10413     10412     10424     10426     10413     10412     10424     10427
     10414     10412     10424     10425     10414     10412     10424     10426
     10414     10412     10424     10427     10415     10418     10419     10420
     10415     10418     10419     10421     10416     10415     10418     10419
     10417     10415     10418     10419     10418     10419     10421     10422
     10418     10419     10421     10423     10418     10419     10421     10471
     10419     10421     10471     10472     10419     10421     10471     10473
     10419     10421     10471     10474     10420     10419     10421     10422
     10420     10419     10421     10423     10420     10419     10421     10471
     10421     10471     10474     10475     10421     10471     10474     10476
     10421     10471     10474     10477     10422     10421     10471     10472
     10422     10421     10471     10473     10422     10421     10471     10474
     10423     10421     10471     10472     10423     10421     10471     10473
     10423     10421     10471     10474     10424     10427     10430     10431
     10424     10427     10430     10432     10425     10424     10427     10428
     10425     10424     10427     10429     10425     10424     10427     10430
     10426     10424     10427     10428     10426     10424     10427     10429
     10426     10424     10427     10430     10427     10430     10432     10433
     10427     10430     10432     10434     10428     10427     10430     10431
     10428     10427     10430     10432     10429     10427     10430     10431
     10429     10427     10430     10432     10430     10432     10434     10435
     10430     10432     10434     10436     10430     10432     10434     10437
     10431     10430     10432     10433     10431     10430     10432     10434
     10432     10434     10437     10438     10432     10434     10437     10439
     10433     10432     10434     10435     10433     10432     10434     10436
     10433     10432     10434     10437     10434     10437     10439     10440
     10434     10437     10439     10441     10435     10434     10437     10438
     10435     10434     10437     10439     10436     10434     10437     10438
     10436     10434     10437     10439     10437     10439     10441     10442
     10437     10439     10441     10443     10437     10439     10441     10444
     10438     10437     10439     10440     10438     10437     10439     10441
     10439     10441     10444     10445     10439     10441     10444     10446
     10440     10439     10441     10442     10440     10439     10441     10443
     10440     10439     10441     10444     10441     10444     10446     10447
     10441     10444     10446     10448     10442     10441     10444     10445
     10442     10441     10444     10446     10443     10441     10444     10445
     10443     10441     10444     10446     10444     10446     10448     10449
     10444     10446     10448     10450     10444     10446     10448     10451
     10445     10444     10446     10447     10445     10444     10446     10448
     10446     10448     10451     10452     10446     10448     10451     10453
     10447     10446     10448     10449     10447     10446     10448     10450
     10447     10446     10448     10451     10448     10451     10453     10454
     10448     10451     10453     10455     10449     10448     10451     10452
     10449     10448     10451     10453     10450     10448     10451     10452
     10450     10448     10451     10453     10451     10453     10455     10456
     10451     10453     10455     10457     10451     10453     10455     10458
     10452     10451     10453     10454     10452     10451     10453     10455
     10453     10455     10458     10459     10453     10455     10458     10460
     10453     10455     10458     10461     10454     10453     10455     10456
     10454     10453     10455     10457     10454     10453     10455     10458
     10455     10458     10461     10462     10455     10458     10461     10463
     10455     10458     10461     10464     10456     10455     10458     10459
     10456     10455     10458     10460     10456     10455     10458     10461
     10457     10455     10458     10459     10457     10455     10458     10460
     10457     10455     10458     10461     10458     10461     10464     10465
     10458     10461     10464     10466     10458     10461     10464     10467
     10459     10458     10461     10462     10459     10458     10461     10463
     10459     10458     10461     10464     10460     10458     10461     10462
     10460     10458     10461     10463     10460     10458     10461     10464
     10461     10464     10467     10468     10461     10464     10467     10469
     10461     10464     10467     10470     10462     10461     10464     10465
     10462     10461     10464     10466     10462     10461     10464     10467
     10463     10461     10464     10465     10463     10461     10464     10466
     10463     10461     10464     10467     10465     10464     10467     10468
     10465     10464     10467     10469     10465     10464     10467     10470
     10466     10464     10467     10468     10466     10464     10467     10469
     10466     10464     10467     10470     10471     10474     10477     10478
     10471     10474     10477     10479     10471     10474     10477     10480
     10472     10471     10474     10475     10472     10471     10474     10476
     10472     10471     10474     10477     10473     10471     10474     10475
     10473     10471     10474     10476     10473     10471     10474     10477
     10474     10477     10480     10481     10474     10477     10480     10482
     10474     10477     10480     10483     10475     10474     10477     10478
     10475     10474     10477     10479     10475     10474     10477     10480
     10476     10474     10477     10478     10476     10474     10477     10479
     10476     10474     10477     10480     10477     10480     10483     10484
     10477     10480     10483     10485     10477     10480     10483     10486
     10478     10477     10480     10481     10478     10477     10480     10482
     10478     10477     10480     10483     10479     10477     10480     10481
     10479     10477     10480     10482     10479     10477     10480     10483
     10480     10483     10486     10487     10480     10483     10486     10488
     10480     10483     10486     10489     10481     10480     10483     10484
     10481     10480     10483     10485     10481     10480     10483     10486
     10482     10480     10483     10484     10482     10480     10483     10485
     10482     10480     10483     10486     10483     10486     10489     10490
     10483     10486     10489     10491     10483     10486     10489     10492
     10484     10483     10486     10487     10484     10483     10486     10488
     10484     10483     10486     10489     10485     10483     10486     10487
     10485     10483     10486     10488     10485     10483     10486     10489
     10486     10489     10492     10493     10486     10489     10492     10494
     10486     10489     10492     10495     10487     10486     10489     10490
     10487     10486     10489     10491     10487     10486     10489     10492
     10488     10486     10489     10490     10488     10486     10489     10491
     10488     10486     10489     10492     10489     10492     10495     10496
     10489     10492     10495     10497     10489     10492     10495     10498
     10490     10489     10492     10493     10490     10489     10492     10494
     10490     10489     10492     10495     10491     10489     10492     10493
     10491     10489     10492     10494     10491     10489     10492     10495
     10492     10495     10498     10499     10492     10495     10498     10500
     10492     10495     10498     10501     10493     10492     10495     10496
     10493     10492     10495     10497     10493     10492     10495     10498
     10494     10492     10495     10496     10494     10492     10495     10497
     10494     10492     10495     10498     10495     10498     10501     10502
     10495     10498     10501     10503     10495     10498     10501     10504
     10496     10495     10498     10499     10496     10495     10498     10500
     10496     10495     10498     10501     10497     10495     10498     10499
     10497     10495     10498     10500     10497     10495     10498     10501
     10498     10501     10504     10505     10498     10501     10504     10506
     10498     10501     10504     10507     10499     10498     10501     10502
     10499     10498     10501     10503     10499     10498     10501     10504
     10500     10498     10501     10502     10500     10498     10501     10503
     10500     10498     10501     10504     10501     10504     10507     10508
     10501     10504     10507     10509     10501     10504     10507     10510
     10502     10501     10504     10505     10502     10501     10504     10506
     10502     10501     10504     10507     10503     10501     10504     10505
     10503     10501     10504     10506     10503     10501     10504     10507
     10504     10507     10510     10511     10504     10507     10510     10512
     10504     10507     10510     10513     10505     10504     10507     10508
     10505     10504     10507     10509     10505     10504     10507     10510
     10506     10504     10507     10508     10506     10504     10507     10509
     10506     10504     10507     10510     10507     10510     10513     10514
     10507     10510     10513     10515     10507     10510     10513     10516
     10508     10507     10510     10511     10508     10507     10510     10512
     10508     10507     10510     10513     10509     10507     10510     10511
     10509     10507     10510     10512     10509     10507     10510     10513
     10510     10513     10516     10517     10510     10513     10516     10518
     10510     10513     10516     10519     10511     10510     10513     10514
     10511     10510     10513     10515     10511     10510     10513     10516
     10512     10510     10513     10514     10512     10510     10513     10515
     10512     10510     10513     10516     10514     10513     10516     10517
     10514     10513     10516     10518     10514     10513     10516     10519
     10515     10513     10516     10517     10515     10513     10516     10518
     10515     10513     10516     10519     10520     10524     10527     10528
     10520     10524     10527     10558     10520     10566     10563     10558
     10520     10566     10563     10564     10520     10566     10563     10565
     10521     10520     10522     10523     10521     10520     10524     10525
     10521     10520     10524     10526     10521     10520     10524     10527
     10521     10520     10566     10563     10521     10520     10566     10567
     10521     10520     10566     10568     10522     10520     10524     10525
     10522     10520     10524     10526     10522     10520     10524     10527
     10522     10520     10566     10563     10522     10520     10566     10567
     10522     10520     10566     10568     10523     10522     10520     10524
     10523     10522     10520     10566     10524     10520     10566     10563
     10524     10520     10566     10567     10524     10520     10566     10568
     10524     10527     10528     10529     10524     10527     10528     10530
     10524     10527     10558     10556     10524     10527     10558     10559
     10524     10527     10558     10563     10525     10524     10520     10566
     10525     10524     10527     10528     10525     10524     10527     10558
     10526     10524     10520     10566     10526     10524     10527     10528
     10526     10524     10527     10558     10527     10524     10520     10566
     10527     10528     10530     10531     10527     10528     10530     10532
     10527     10528     10530     10533     10527     10558     10556     10533
     10527     10558     10556     10553     10527     10558     10556     10557
     10527     10558     10559     10560     10527     10558     10559     10561
     10527     10558     10559     10562     10527     10558     10563     10564
     10527     10558     10563     10565     10527     10558     10563     10566
     10528     10527     10558     10556     10528     10527     10558     10559
     10528     10527     10558     10563     10528     10530     10533     10534
     10528     10530     10533     10535     10528     10530     10533     10556
     10529     10528     10527     10558     10529     10528     10530     10531
     10529     10528     10530     10532     10529     10528     10530     10533
     10530     10528     10527     10558     10530     10533     10535     10536
     10530     10533     10535     10537     10530     10533     10535     10545
     10530     10533     10556     10553     10530     10533     10556     10557
     10530     10533     10556     10558     10531     10530     10533     10534
     10531     10530     10533     10535     10531     10530     10533     10556
     10532     10530     10533     10534     10532     10530     10533     10535
     10532     10530     10533     10556     10533     10535     10537     10538
     10533     10535     10537     10539     10533     10535     10537     10540
     10533     10535     10545     10543     10533     10535     10545     10546
     10533     10535     10545     10550     10533     10556     10553     10550
     10533     10556     10553     10554     10533     10556     10553     10555
     10533     10556     10558     10559     10533     10556     10558     10563
     10534     10533     10535     10536     10534     10533     10535     10537
     10534     10533     10535     10545     10534     10533     10556     10553
     10534     10533     10556     10557     10534     10533     10556     10558
     10535     10533     10556     10553     10535     10533     10556     10557
     10535     10533     10556     10558     10535     10537     10540     10541
     10535     10537     10540     10542     10535     10537     10540     10543
     10535     10545     10543     10540     10535     10545     10543     10544
     10535     10545     10543     10569     10535     10545     10546     10547
     10535     10545     10546     10548     10535     10545     10546     10549
     10535     10545     10550     10551     10535     10545     10550     10552
     10535     10545     10550     10553     10536     10535     10533     10556
     10536     10535     10537     10538     10536     10535     10537     10539
     10536     10535     10537     10540     10536     10535     10545     10543
     10536     10535     10545     10546     10536     10535     10545     10550
     10537     10535     10533     10556     10537     10535     10545     10543
     10537     10535     10545     10546     10537     10535     10545     10550
     10537     10540     10543     10544     10537     10540     10543     10545
     10537     10540     10543     10569     10538     10537     10535     10545
     10538     10537     10540     10541     10538     10537     10540     10542
     10538     10537     10540     10543     10539     10537     10535     10545
     10539     10537     10540     10541     10539     10537     10540     10542
     10539     10537     10540     10543     10540     10537     10535     10545
     10540     10543     10545     10546     10540     10543     10545     10550
     10540     10543     10569     10570     10540     10543     10569     10571
     10540     10543     10569     10575     10541     10540     10543     10544
     10541     10540     10543     10545     10541     10540     10543     10569
     10542     10540     10543     10544     10542     10540     10543     10545
     10542     10540     10543     10569     10543     10545     10546     10547
     10543     10545     10546     10548     10543     10545     10546     10549
     10543     10545     10550     10551     10543     10545     10550     10552
     10543     10545     10550     10553     10543     10569     10571     10572
     10543     10569     10571     10573     10543     10569     10571     10574
     10543     10569     10575     10576     10543     10569     10575     10577
     10543     10569     10575     10578     10544     10543     10545     10546
     10544     10543     10545     10550     10544     10543     10569     10570
     10544     10543     10569     10571     10544     10543     10569     10575
     10545     10535     10533     10556     10545     10543     10569     10570
     10545     10543     10569     10571     10545     10543     10569     10575
     10545     10550     10553     10554     10545     10550     10553     10555
     10545     10550     10553     10556     10546     10545     10543     10569
     10546     10545     10550     10551     10546     10545     10550     10552
     10546     10545     10550     10553     10547     10546     10545     10550
     10548     10546     10545     10550     10549     10546     10545     10550
     10550     10545     10543     10569     10550     10553     10556     10557
     10550     10553     10556     10558     10551     10550     10553     10554
     10551     10550     10553     10555     10551     10550     10553     10556
     10552     10550     10553     10554     10552     10550     10553     10555
     10552     10550     10553     10556     10553     10556     10558     10559
     10553     10556     10558     10563     10554     10553     10556     10557
     10554     10553     10556     10558     10555     10553     10556     10557
     10555     10553     10556     10558     10556     10558     10559     10560
     10556     10558     10559     10561     10556     10558     10559     10562
     10556     10558     10563     10564     10556     10558     10563     10565
     10556     10558     10563     10566     10557     10556     10558     10559
     10557     10556     10558     10563     10558     10563     10566     10567
     10558     10563     10566     10568     10559     10558     10563     10564
     10559     10558     10563     10565     10559     10558     10563     10566
     10560     10559     10558     10563     10561     10559     10558     10563
     10562     10559     10558     10563     10564     10563     10566     10567
     10564     10563     10566     10568     10565     10563     10566     10567
     10565     10563     10566     10568     10569     10575     10578     10579
     10569     10575     10578     10580     10569     10575     10578     10581
     10570     10569     10571     10572     10570     10569     10571     10573
     10570     10569     10571     10574     10570     10569     10575     10576
     10570     10569     10575     10577     10570     10569     10575     10578
     10571     10569     10575     10576     10571     10569     10575     10577
     10571     10569     10575     10578     10572     10571     10569     10575
     10573     10571     10569     10575     10574     10571     10569     10575
     10575     10578     10581     10582     10575     10578     10581     10583
     10575     10578     10581     10584     10576     10575     10578     10579
     10576     10575     10578     10580     10576     10575     10578     10581
     10577     10575     10578     10579     10577     10575     10578     10580
     10577     10575     10578     10581     10578     10581     10584     10585
     10578     10581     10584     10586     10578     10581     10584     10590
     10579     10578     10581     10582     10579     10578     10581     10583
     10579     10578     10581     10584     10580     10578     10581     10582
     10580     10578     10581     10583     10580     10578     10581     10584
     10581     10584     10586     10587     10581     10584     10586     10588
     10581     10584     10586     10589     10581     10584     10590     10591
     10581     10584     10590     10592     10581     10584     10590     10593
     10582     10581     10584     10585     10582     10581     10584     10586
     10582     10581     10584     10590     10583     10581     10584     10585
     10583     10581     10584     10586     10583     10581     10584     10590
     10585     10584     10586     10587     10585     10584     10586     10588
     10585     10584     10586     10589     10585     10584     10590     10591
     10585     10584     10590     10592     10585     10584     10590     10593
     10586     10584     10590     10591     10586     10584     10590     10592
     10586     10584     10590     10593     10587     10586     10584     10590
     10588     10586     10584     10590     10589     10586     10584     10590
     10594     10598     10601     10602     10594     10598     10601     10603
     10594     10598     10601     10607     10595     10594     10598     10599
     10595     10594     10598     10600     10595     10594     10598     10601
     10596     10594     10598     10599     10596     10594     10598     10600
     10596     10594     10598     10601     10597     10594     10598     10599
     10597     10594     10598     10600     10597     10594     10598     10601
     10598     10601     10607     10604     10599     10598     10601     10602
     10599     10598     10601     10603     10599     10598     10601     10607
     10600     10598     10601     10602     10600     10598     10601     10603
     10600     10598     10601     10607     10601     10607     10604     10605
     10601     10607     10604     10606     10601     10607     10604     10608
     10602     10601     10607     10604     10603     10601     10607     10604
     10604     10608     10609     10610     10604     10608     10609     10611
     10604     10608     10609     10612     10605     10604     10608     10609
     10606     10604     10608     10609     10607     10604     10608     10609
     10608     10609     10612     10613     10608     10609     10612     10614
     10608     10609     10612     10620     10609     10612     10614     10615
     10609     10612     10620     10621     10609     10612     10620     10622
     10609     10612     10620     10623     10610     10609     10612     10613
     10610     10609     10612     10614     10610     10609     10612     10620
     10611     10609     10612     10613     10611     10609     10612     10614
     10611     10609     10612     10620     10612     10614     10615     10616
     10612     10614     10615     10617     10612     10620     10623     10624
     10613     10612     10614     10615     10613     10612     10620     10621
     10613     10612     10620     10622     10613     10612     10620     10623
     10614     10612     10620     10621     10614     10612     10620     10622
     10614     10612     10620     10623     10614     10615     10617     10618
     10614     10615     10617     10619     10614     10615     10617     10629
     10615     10614     10612     10620     10615     10617     10629     10630
     10615     10617     10629     10631     10615     10617     10629     10632
     10616     10615     10617     10618     10616     10615     10617     10619
     10616     10615     10617     10629     10617     10629     10632     10633
     10617     10629     10632     10634     10617     10629     10632     10635
     10618     10617     10629     10630     10618     10617     10629     10631
     10618     10617     10629     10632     10619     10617     10629     10630
     10619     10617     10629     10631     10619     10617     10629     10632
     10620     10623     10624     10625     10620     10623     10624     10626
     10621     10620     10623     10624     10622     10620     10623     10624
     10623     10624     10626     10627     10623     10624     10626     10628
     10623     10624     10626     10676     10624     10626     10676     10677
     10624     10626     10676     10678     10624     10626     10676     10679
     10625     10624     10626     10627     10625     10624     10626     10628
     10625     10624     10626     10676     10626     10676     10679     10680
     10626     10676     10679     10681     10626     10676     10679     10682
     10627     10626     10676     10677     10627     10626     10676     10678
     10627     10626     10676     10679     10628     10626     10676     10677
     10628     10626     10676     10678     10628     10626     10676     10679
     10629     10632     10635     10636     10629     10632     10635     10637
     10630     10629     10632     10633     10630     10629     10632     10634
     10630     10629     10632     10635     10631     10629     10632     10633
     10631     10629     10632     10634     10631     10629     10632     10635
     10632     10635     10637     10638     10632     10635     10637     10639
     10633     10632     10635     10636     10633     10632     10635     10637
     10634     10632     10635     10636     10634     10632     10635     10637
     10635     10637     10639     10640     10635     10637     10639     10641
     10635     10637     10639     10642     10636     10635     10637     10638
     10636     10635     10637     10639     10637     10639     10642     10643
     10637     10639     10642     10644     10638     10637     10639     10640
     10638     10637     10639     10641     10638     10637     10639     10642
     10639     10642     10644     10645     10639     10642     10644     10646
     10640     10639     10642     10643     10640     10639     10642     10644
     10641     10639     10642     10643     10641     10639     10642     10644
     10642     10644     10646     10647     10642     10644     10646     10648
     10642     10644     10646     10649     10643     10642     10644     10645
     10643     10642     10644     10646     10644     10646     10649     10650
     10644     10646     10649     10651     10645     10644     10646     10647
     10645     10644     10646     10648     10645     10644     10646     10649
     10646     10649     10651     10652     10646     10649     10651     10653
     10647     10646     10649     10650     10647     10646     10649     10651
     10648     10646     10649     10650     10648     10646     10649     10651
     10649     10651     10653     10654     10649     10651     10653     10655
     10649     10651     10653     10656     10650     10649     10651     10652
     10650     10649     10651     10653     10651     10653     10656     10657
     10651     10653     10656     10658     10652     10651     10653     10654
     10652     10651     10653     10655     10652     10651     10653     10656
     10653     10656     10658     10659     10653     10656     10658     10660
     10654     10653     10656     10657     10654     10653     10656     10658
     10655     10653     10656     10657     10655     10653     10656     10658
     10656     10658     10660     10661     10656     10658     10660     10662
     10656     10658     10660     10663     10657     10656     10658     10659
     10657     10656     10658     10660     10658     10660     10663     10664
     10658     10660     10663     10665     10658     10660     10663     10666
     10659     10658     10660     10661     10659     10658     10660     10662
     10659     10658     10660     10663     10660     10663     10666     10667
     10660     10663     10666     10668     10660     10663     10666     10669
     10661     10660     10663     10664     10661     10660     10663     10665
     10661     10660     10663     10666     10662     10660     10663     10664
     10662     10660     10663     10665     10662     10660     10663     10666
     10663     10666     10669     10670     10663     10666     10669     10671
     10663     10666     10669     10672     10664     10663     10666     10667
     10664     10663     10666     10668     10664     10663     10666     10669
     10665     10663     10666     10667     10665     10663     10666     10668
     10665     10663     10666     10669     10666     10669     10672     10673
     10666     10669     10672     10674     10666     10669     10672     10675
     10667     10666     10669     10670     10667     10666     10669     10671
     10667     10666     10669     10672     10668     10666     10669     10670
     10668     10666     10669     10671     10668     10666     10669     10672
     10670     10669     10672     10673     10670     10669     10672     10674
     10670     10669     10672     10675     10671     10669     10672     10673
     10671     10669     10672     10674     10671     10669     10672     10675
     10676     10679     10682     10683     10676     10679     10682     10684
     10676     10679     10682     10685     10677     10676     10679     10680
     10677     10676     10679     10681     10677     10676     10679     10682
     10678     10676     10679     10680     10678     10676     10679     10681
     10678     10676     10679     10682     10679     10682     10685     10686
     10679     10682     10685     10687     10679     10682     10685     10688
     10680     10679     10682     10683     10680     10679     10682     10684
     10680     10679     10682     10685     10681     10679     10682     10683
     10681     10679     10682     10684     10681     10679     10682     10685
     10682     10685     10688     10689     10682     10685     10688     10690
     10682     10685     10688     10691     10683     10682     10685     10686
     10683     10682     10685     10687     10683     10682     10685     10688
     10684     10682     10685     10686     10684     10682     10685     10687
     10684     10682     10685     10688     10685     10688     10691     10692
     10685     10688     10691     10693     10685     10688     10691     10694
     10686     10685     10688     10689     10686     10685     10688     10690
     10686     10685     10688     10691     10687     10685     10688     10689
     10687     10685     10688     10690     10687     10685     10688     10691
     10688     10691     10694     10695     10688     10691     10694     10696
     10688     10691     10694     10697     10689     10688     10691     10692
     10689     10688     10691     10693     10689     10688     10691     10694
     10690     10688     10691     10692     10690     10688     10691     10693
     10690     10688     10691     10694     10691     10694     10697     10698
     10691     10694     10697     10699     10691     10694     10697     10700
     10692     10691     10694     10695     10692     10691     10694     10696
     10692     10691     10694     10697     10693     10691     10694     10695
     10693     10691     10694     10696     10693     10691     10694     10697
     10694     10697     10700     10701     10694     10697     10700     10702
     10694     10697     10700     10703     10695     10694     10697     10698
     10695     10694     10697     10699     10695     10694     10697     10700
     10696     10694     10697     10698     10696     10694     10697     10699
     10696     10694     10697     10700     10697     10700     10703     10704
     10697     10700     10703     10705     10697     10700     10703     10706
     10698     10697     10700     10701     10698     10697     10700     10702
     10698     10697     10700     10703     10699     10697     10700     10701
     10699     10697     10700     10702     10699     10697     10700     10703
     10700     10703     10706     10707     10700     10703     10706     10708
     10700     10703     10706     10709     10701     10700     10703     10704
     10701     10700     10703     10705     10701     10700     10703     10706
     10702     10700     10703     10704     10702     10700     10703     10705
     10702     10700     10703     10706     10703     10706     10709     10710
     10703     10706     10709     10711     10703     10706     10709     10712
     10704     10703     10706     10707     10704     10703     10706     10708
     10704     10703     10706     10709     10705     10703     10706     10707
     10705     10703     10706     10708     10705     10703     10706     10709
     10706     10709     10712     10713     10706     10709     10712     10714
     10706     10709     10712     10715     10707     10706     10709     10710
     10707     10706     10709     10711     10707     10706     10709     10712
     10708     10706     10709     10710     10708     10706     10709     10711
     10708     10706     10709     10712     10709     10712     10715     10716
     10709     10712     10715     10717     10709     10712     10715     10718
     10710     10709     10712     10713     10710     10709     10712     10714
     10710     10709     10712     10715     10711     10709     10712     10713
     10711     10709     10712     10714     10711     10709     10712     10715
     10712     10715     10718     10719     10712     10715     10718     10720
     10712     10715     10718     10721     10713     10712     10715     10716
     10713     10712     10715     10717     10713     10712     10715     10718
     10714     10712     10715     10716     10714     10712     10715     10717
     10714     10712     10715     10718     10715     10718     10721     10722
     10715     10718     10721     10723     10715     10718     10721     10724
     10716     10715     10718     10719     10716     10715     10718     10720
     10716     10715     10718     10721     10717     10715     10718     10719
     10717     10715     10718     10720     10717     10715     10718     10721
     10719     10718     10721     10722     10719     10718     10721     10723
     10719     10718     10721     10724     10720     10718     10721     10722
     10720     10718     10721     10723     10720     10718     10721     10724
     10725     10729     10731     10732     10725     10729     10731     10733
     10725     10729     10734     10735     10725     10729     10734     10736
     10725     10729     10734     10740     10726     10725     10729     10730
     10726     10725     10729     10731     10726     10725     10729     10734
     10727     10725     10729     10730     10727     10725     10729     10731
     10727     10725     10729     10734     10728     10725     10729     10730
     10728     10725     10729     10731     10728     10725     10729     10734
     10729     10734     10740     10737     10730     10729     10731     10732
     10730     10729     10731     10733     10730     10729     10734     10735
     10730     10729     10734     10736     10730     10729     10734     10740
     10731     10729     10734     10735     10731     10729     10734     10736
     10731     10729     10734     10740     10732     10731     10729     10734
     10733     10731     10729     10734     10734     10740     10737     10738
     10734     10740     10737     10739     10734     10740     10737     10741
     10735     10734     10740     10737     10736     10734     10740     10737
     10737     10741     10742     10743     10737     10741     10742     10744
     10737     10741     10742     10745     10738     10737     10741     10742
     10739     10737     10741     10742     10740     10737     10741     10742
     10741     10742     10745     10746     10741     10742     10745     10747
     10741     10742     10745     10753     10742     10745     10747     10748
     10742     10745     10753     10754     10742     10745     10753     10755
     10742     10745     10753     10756     10743     10742     10745     10746
     10743     10742     10745     10747     10743     10742     10745     10753
     10744     10742     10745     10746     10744     10742     10745     10747
     10744     10742     10745     10753     10745     10747     10748     10749
     10745     10747     10748     10750     10745     10753     10756     10757
     10746     10745     10747     10748     10746     10745     10753     10754
     10746     10745     10753     10755     10746     10745     10753     10756
     10747     10745     10753     10754     10747     10745     10753     10755
     10747     10745     10753     10756     10747     10748     10750     10751
     10747     10748     10750     10752     10747     10748     10750     10762
     10748     10747     10745     10753     10748     10750     10762     10763
     10748     10750     10762     10764     10748     10750     10762     10765
     10749     10748     10750     10751     10749     10748     10750     10752
     10749     10748     10750     10762     10750     10762     10765     10766
     10750     10762     10765     10767     10750     10762     10765     10768
     10751     10750     10762     10763     10751     10750     10762     10764
     10751     10750     10762     10765     10752     10750     10762     10763
     10752     10750     10762     10764     10752     10750     10762     10765
     10753     10756     10757     10758     10753     10756     10757     10759
     10754     10753     10756     10757     10755     10753     10756     10757
     10756     10757     10759     10760     10756     10757     10759     10761
     10756     10757     10759     10809     10757     10759     10809     10810
     10757     10759     10809     10811     10757     10759     10809     10812
     10758     10757     10759     10760     10758     10757     10759     10761
     10758     10757     10759     10809     10759     10809     10812     10813
     10759     10809     10812     10814     10759     10809     10812     10815
     10760     10759     10809     10810     10760     10759     10809     10811
     10760     10759     10809     10812     10761     10759     10809     10810
     10761     10759     10809     10811     10761     10759     10809     10812
     10762     10765     10768     10769     10762     10765     10768     10770
     10763     10762     10765     10766     10763     10762     10765     10767
     10763     10762     10765     10768     10764     10762     10765     10766
     10764     10762     10765     10767     10764     10762     10765     10768
     10765     10768     10770     10771     10765     10768     10770     10772
     10766     10765     10768     10769     10766     10765     10768     10770
     10767     10765     10768     10769     10767     10765     10768     10770
     10768     10770     10772     10773     10768     10770     10772     10774
     10768     10770     10772     10775     10769     10768     10770     10771
     10769     10768     10770     10772     10770     10772     10775     10776
     10770     10772     10775     10777     10771     10770     10772     10773
     10771     10770     10772     10774     10771     10770     10772     10775
     10772     10775     10777     10778     10772     10775     10777     10779
     10773     10772     10775     10776     10773     10772     10775     10777
     10774     10772     10775     10776     10774     10772     10775     10777
     10775     10777     10779     10780     10775     10777     10779     10781
     10775     10777     10779     10782     10776     10775     10777     10778
     10776     10775     10777     10779     10777     10779     10782     10783
     10777     10779     10782     10784     10778     10777     10779     10780
     10778     10777     10779     10781     10778     10777     10779     10782
     10779     10782     10784     10785     10779     10782     10784     10786
     10780     10779     10782     10783     10780     10779     10782     10784
     10781     10779     10782     10783     10781     10779     10782     10784
     10782     10784     10786     10787     10782     10784     10786     10788
     10782     10784     10786     10789     10783     10782     10784     10785
     10783     10782     10784     10786     10784     10786     10789     10790
     10784     10786     10789     10791     10785     10784     10786     10787
     10785     10784     10786     10788     10785     10784     10786     10789
     10786     10789     10791     10792     10786     10789     10791     10793
     10787     10786     10789     10790     10787     10786     10789     10791
     10788     10786     10789     10790     10788     10786     10789     10791
     10789     10791     10793     10794     10789     10791     10793     10795
     10789     10791     10793     10796     10790     10789     10791     10792
     10790     10789     10791     10793     10791     10793     10796     10797
     10791     10793     10796     10798     10791     10793     10796     10799
     10792     10791     10793     10794     10792     10791     10793     10795
     10792     10791     10793     10796     10793     10796     10799     10800
     10793     10796     10799     10801     10793     10796     10799     10802
     10794     10793     10796     10797     10794     10793     10796     10798
     10794     10793     10796     10799     10795     10793     10796     10797
     10795     10793     10796     10798     10795     10793     10796     10799
     10796     10799     10802     10803     10796     10799     10802     10804
     10796     10799     10802     10805     10797     10796     10799     10800
     10797     10796     10799     10801     10797     10796     10799     10802
     10798     10796     10799     10800     10798     10796     10799     10801
     10798     10796     10799     10802     10799     10802     10805     10806
     10799     10802     10805     10807     10799     10802     10805     10808
     10800     10799     10802     10803     10800     10799     10802     10804
     10800     10799     10802     10805     10801     10799     10802     10803
     10801     10799     10802     10804     10801     10799     10802     10805
     10803     10802     10805     10806     10803     10802     10805     10807
     10803     10802     10805     10808     10804     10802     10805     10806
     10804     10802     10805     10807     10804     10802     10805     10808
     10809     10812     10815     10816     10809     10812     10815     10817
     10809     10812     10815     10818     10810     10809     10812     10813
     10810     10809     10812     10814     10810     10809     10812     10815
     10811     10809     10812     10813     10811     10809     10812     10814
     10811     10809     10812     10815     10812     10815     10818     10819
     10812     10815     10818     10820     10812     10815     10818     10821
     10813     10812     10815     10816     10813     10812     10815     10817
     10813     10812     10815     10818     10814     10812     10815     10816
     10814     10812     10815     10817     10814     10812     10815     10818
     10815     10818     10821     10822     10815     10818     10821     10823
     10815     10818     10821     10824     10816     10815     10818     10819
     10816     10815     10818     10820     10816     10815     10818     10821
     10817     10815     10818     10819     10817     10815     10818     10820
     10817     10815     10818     10821     10818     10821     10824     10825
     10818     10821     10824     10826     10818     10821     10824     10827
     10819     10818     10821     10822     10819     10818     10821     10823
     10819     10818     10821     10824     10820     10818     10821     10822
     10820     10818     10821     10823     10820     10818     10821     10824
     10821     10824     10827     10828     10821     10824     10827     10829
     10821     10824     10827     10830     10822     10821     10824     10825
     10822     10821     10824     10826     10822     10821     10824     10827
     10823     10821     10824     10825     10823     10821     10824     10826
     10823     10821     10824     10827     10824     10827     10830     10831
     10824     10827     10830     10832     10824     10827     10830     10833
     10825     10824     10827     10828     10825     10824     10827     10829
     10825     10824     10827     10830     10826     10824     10827     10828
     10826     10824     10827     10829     10826     10824     10827     10830
     10827     10830     10833     10834     10827     10830     10833     10835
     10827     10830     10833     10836     10828     10827     10830     10831
     10828     10827     10830     10832     10828     10827     10830     10833
     10829     10827     10830     10831     10829     10827     10830     10832
     10829     10827     10830     10833     10830     10833     10836     10837
     10830     10833     10836     10838     10830     10833     10836     10839
     10831     10830     10833     10834     10831     10830     10833     10835
     10831     10830     10833     10836     10832     10830     10833     10834
     10832     10830     10833     10835     10832     10830     10833     10836
     10833     10836     10839     10840     10833     10836     10839     10841
     10833     10836     10839     10842     10834     10833     10836     10837
     10834     10833     10836     10838     10834     10833     10836     10839
     10835     10833     10836     10837     10835     10833     10836     10838
     10835     10833     10836     10839     10836     10839     10842     10843
     10836     10839     10842     10844     10836     10839     10842     10845
     10837     10836     10839     10840     10837     10836     10839     10841
     10837     10836     10839     10842     10838     10836     10839     10840
     10838     10836     10839     10841     10838     10836     10839     10842
     10839     10842     10845     10846     10839     10842     10845     10847
     10839     10842     10845     10848     10840     10839     10842     10843
     10840     10839     10842     10844     10840     10839     10842     10845
     10841     10839     10842     10843     10841     10839     10842     10844
     10841     10839     10842     10845     10842     10845     10848     10849
     10842     10845     10848     10850     10842     10845     10848     10851
     10843     10842     10845     10846     10843     10842     10845     10847
     10843     10842     10845     10848     10844     10842     10845     10846
     10844     10842     10845     10847     10844     10842     10845     10848
     10845     10848     10851     10852     10845     10848     10851     10853
     10845     10848     10851     10854     10846     10845     10848     10849
     10846     10845     10848     10850     10846     10845     10848     10851
     10847     10845     10848     10849     10847     10845     10848     10850
     10847     10845     10848     10851     10848     10851     10854     10855
     10848     10851     10854     10856     10848     10851     10854     10857
     10849     10848     10851     10852     10849     10848     10851     10853
     10849     10848     10851     10854     10850     10848     10851     10852
     10850     10848     10851     10853     10850     10848     10851     10854
     10852     10851     10854     10855     10852     10851     10854     10856
     10852     10851     10854     10857     10853     10851     10854     10855
     10853     10851     10854     10856     10853     10851     10854     10857
     10858     10871     10874     10875     10858     10871     10874     10876
     10858     10871     10874     10881     10859     10858     10863     10864
     10859     10858     10863     10865     10859     10858     10863     10866
     10859     10858     10867     10868     10859     10858     10867     10869
     10859     10858     10867     10870     10859     10858     10871     10872
     10859     10858     10871     10873     10859     10858     10871     10874
     10860     10859     10858     10863     10860     10859     10858     10867
     10860     10859     10858     10871     10861     10859     10858     10863
     10861     10859     10858     10867     10861     10859     10858     10871
     10862     10859     10858     10863     10862     10859     10858     10867
     10862     10859     10858     10871     10863     10858     10867     10868
     10863     10858     10867     10869     10863     10858     10867     10870
     10863     10858     10871     10872     10863     10858     10871     10873
     10863     10858     10871     10874     10864     10863     10858     10867
     10864     10863     10858     10871     10865     10863     10858     10867
     10865     10863     10858     10871     10866     10863     10858     10867
     10866     10863     10858     10871     10867     10858     10871     10872
     10867     10858     10871     10873     10867     10858     10871     10874
     10868     10867     10858     10871     10869     10867     10858     10871
     10870     10867     10858     10871     10871     10874     10881     10877
     10872     10871     10874     10875     10872     10871     10874     10876
     10872     10871     10874     10881     10873     10871     10874     10875
     10873     10871     10874     10876     10873     10871     10874     10881
     10874     10881     10877     10878     10874     10881     10877     10879
     10874     10881     10877     10880     10875     10874     10881     10877
     10876     10874     10881     10877     10877     10880     10882     10883
     10877     10880     10882     10884     10877     10880     10882     10887
     10878     10877     10880     10882     10879     10877     10880     10882
     10880     10882     10887     10885     10880     10882     10887     10888
     10880     10882     10887     10889     10881     10877     10880     10882
     10882     10887     10885     10886     10882     10887     10885     10937
     10882     10887     10889     10890     10882     10887     10889     10891
     10882     10887     10889     10893     10883     10882     10887     10885
     10883     10882     10887     10888     10883     10882     10887     10889
     10884     10882     10887     10885     10884     10882     10887     10888
     10884     10882     10887     10889     10885     10887     10889     10890
     10885     10887     10889     10891     10885     10887     10889     10893
     10885     10937     10939     10940     10885     10937     10939     10941
     10885     10937     10939     10942     10886     10885     10887     10888
     10886     10885     10887     10889     10886     10885     10937     10938
     10886     10885     10937     10939     10887     10885     10937     10938
     10887     10885     10937     10939     10887     10889     10891     10892
     10887     10889     10893     10894     10887     10889     10893     10895
     10888     10887     10885     10937     10888     10887     10889     10890
     10888     10887     10889     10891     10888     10887     10889     10893
     10889     10887     10885     10937     10889     10893     10895     10896
     10889     10893     10895     10897     10890     10889     10891     10892
     10890     10889     10893     10894     10890     10889     10893     10895
     10891     10889     10893     10894     10891     10889     10893     10895
     10892     10891     10889     10893     10893     10895     10897     10898
     10893     10895     10897     10899     10893     10895     10897     10900
     10894     10893     10895     10896     10894     10893     10895     10897
     10895     10897     10900     10901     10895     10897     10900     10902
     10895     10897     10900     10903     10896     10895     10897     10898
     10896     10895     10897     10899     10896     10895     10897     10900
     10897     10900     10903     10904     10897     10900     10903     10905
     10897     10900     10903     10906     10898     10897     10900     10901
     10898     10897     10900     10902     10898     10897     10900     10903
     10899     10897     10900     10901     10899     10897     10900     10902
     10899     10897     10900     10903     10900     10903     10906     10907
     10900     10903     10906     10908     10900     10903     10906     10909
     10901     10900     10903     10904     10901     10900     10903     10905
     10901     10900     10903     10906     10902     10900     10903     10904
     10902     10900     10903     10905     10902     10900     10903     10906
     10903     10906     10909     10910     10903     10906     10909     10911
     10903     10906     10909     10912     10904     10903     10906     10907
     10904     10903     10906     10908     10904     10903     10906     10909
     10905     10903     10906     10907     10905     10903     10906     10908
     10905     10903     10906     10909     10906     10909     10912     10913
     10906     10909     10912     10914     10906     10909     10912     10915
     10907     10906     10909     10910     10907     10906     10909     10911
     10907     10906     10909     10912     10908     10906     10909     10910
     10908     10906     10909     10911     10908     10906     10909     10912
     10909     10912     10915     10916     10909     10912     10915     10917
     10909     10912     10915     10918     10910     10909     10912     10913
     10910     10909     10912     10914     10910     10909     10912     10915
     10911     10909     10912     10913     10911     10909     10912     10914
     10911     10909     10912     10915     10912     10915     10918     10919
     10912     10915     10918     10920     10912     10915     10918     10921
     10913     10912     10915     10916     10913     10912     10915     10917
     10913     10912     10915     10918     10914     10912     10915     10916
     10914     10912     10915     10917     10914     10912     10915     10918
     10915     10918     10921     10922     10915     10918     10921     10923
     10915     10918     10921     10924     10916     10915     10918     10919
     10916     10915     10918     10920     10916     10915     10918     10921
     10917     10915     10918     10919     10917     10915     10918     10920
     10917     10915     10918     10921     10918     10921     10924     10925
     10918     10921     10924     10926     10918     10921     10924     10927
     10919     10918     10921     10922     10919     10918     10921     10923
     10919     10918     10921     10924     10920     10918     10921     10922
     10920     10918     10921     10923     10920     10918     10921     10924
     10921     10924     10927     10928     10921     10924     10927     10929
     10921     10924     10927     10930     10922     10921     10924     10925
     10922     10921     10924     10926     10922     10921     10924     10927
     10923     10921     10924     10925     10923     10921     10924     10926
     10923     10921     10924     10927     10924     10927     10930     10931
     10924     10927     10930     10932     10924     10927     10930     10933
     10925     10924     10927     10928     10925     10924     10927     10929
     10925     10924     10927     10930     10926     10924     10927     10928
     10926     10924     10927     10929     10926     10924     10927     10930
     10927     10930     10933     10934     10927     10930     10933     10935
     10927     10930     10933     10936     10928     10927     10930     10931
     10928     10927     10930     10932     10928     10927     10930     10933
     10929     10927     10930     10931     10929     10927     10930     10932
     10929     10927     10930     10933     10931     10930     10933     10934
     10931     10930     10933     10935     10931     10930     10933     10936
     10932     10930     10933     10934     10932     10930     10933     10935
     10932     10930     10933     10936     10937     10939     10942     10943
     10937     10939     10942     10944     10937     10939     10942     10945
     10938     10937     10939     10940     10938     10937     10939     10941
     10938     10937     10939     10942     10939     10942     10945     10946
     10939     10942     10945     10947     10939     10942     10945     10948
     10940     10939     10942     10943     10940     10939     10942     10944
     10940     10939     10942     10945     10941     10939     10942     10943
     10941     10939     10942     10944     10941     10939     10942     10945
     10942     10945     10948     10949     10942     10945     10948     10950
     10942     10945     10948     10951     10943     10942     10945     10946
     10943     10942     10945     10947     10943     10942     10945     10948
     10944     10942     10945     10946     10944     10942     10945     10947
     10944     10942     10945     10948     10945     10948     10951     10952
     10945     10948     10951     10953     10945     10948     10951     10954
     10946     10945     10948     10949     10946     10945     10948     10950
     10946     10945     10948     10951     10947     10945     10948     10949
     10947     10945     10948     10950     10947     10945     10948     10951
     10948     10951     10954     10955     10948     10951     10954     10956
     10948     10951     10954     10957     10949     10948     10951     10952
     10949     10948     10951     10953     10949     10948     10951     10954
     10950     10948     10951     10952     10950     10948     10951     10953
     10950     10948     10951     10954     10951     10954     10957     10958
     10951     10954     10957     10959     10951     10954     10957     10960
     10952     10951     10954     10955     10952     10951     10954     10956
     10952     10951     10954     10957     10953     10951     10954     10955
     10953     10951     10954     10956     10953     10951     10954     10957
     10954     10957     10960     10961     10954     10957     10960     10962
     10955     10954     10957     10958     10955     10954     10957     10959
     10955     10954     10957     10960     10956     10954     10957     10958
     10956     10954     10957     10959     10956     10954     10957     10960
     10957     10960     10962     10963     10957     10960     10962     10964
     10958     10957     10960     10961     10958     10957     10960     10962
     10959     10957     10960     10961     10959     10957     10960     10962
     10960     10962     10964     10965     10960     10962     10964     10966
     10960     10962     10964     10967     10961     10960     10962     10963
     10961     10960     10962     10964     10962     10964     10967     10968
     10962     10964     10967     10969     10962     10964     10967     10970
     10963     10962     10964     10965     10963     10962     10964     10966
     10963     10962     10964     10967     10964     10967     10970     10971
     10964     10967     10970     10972     10964     10967     10970     10973
     10965     10964     10967     10968     10965     10964     10967     10969
     10965     10964     10967     10970     10966     10964     10967     10968
     10966     10964     10967     10969     10966     10964     10967     10970
     10967     10970     10973     10974     10967     10970     10973     10975
     10967     10970     10973     10976     10968     10967     10970     10971
     10968     10967     10970     10972     10968     10967     10970     10973
     10969     10967     10970     10971     10969     10967     10970     10972
     10969     10967     10970     10973     10970     10973     10976     10977
     10970     10973     10976     10978     10970     10973     10976     10979
     10971     10970     10973     10974     10971     10970     10973     10975
     10971     10970     10973     10976     10972     10970     10973     10974
     10972     10970     10973     10975     10972     10970     10973     10976
     10973     10976     10979     10980     10973     10976     10979     10981
     10973     10976     10979     10982     10974     10973     10976     10977
     10974     10973     10976     10978     10974     10973     10976     10979
     10975     10973     10976     10977     10975     10973     10976     10978
     10975     10973     10976     10979     10976     10979     10982     10983
     10976     10979     10982     10984     10976     10979     10982     10985
     10977     10976     10979     10980     10977     10976     10979     10981
     10977     10976     10979     10982     10978     10976     10979     10980
     10978     10976     10979     10981     10978     10976     10979     10982
     10979     10982     10985     10986     10979     10982     10985     10987
     10979     10982     10985     10988     10980     10979     10982     10983
     10980     10979     10982     10984     10980     10979     10982     10985
     10981     10979     10982     10983     10981     10979     10982     10984
     10981     10979     10982     10985     10983     10982     10985     10986
     10983     10982     10985     10987     10983     10982     10985     10988
     10984     10982     10985     10986     10984     10982     10985     10987
     10984     10982     10985     10988     10989     11002     11005     11006
     10989     11002     11005     11007     10989     11002     11005     11011
     10990     10989     10994     10995     10990     10989     10994     10996
     10990     10989     10994     10997     10990     10989     10998     10999
     10990     10989     10998     11000     10990     10989     10998     11001
     10990     10989     11002     11003     10990     10989     11002     11004
     10990     10989     11002     11005     10991     10990     10989     10994
     10991     10990     10989     10998     10991     10990     10989     11002
     10992     10990     10989     10994     10992     10990     10989     10998
     10992     10990     10989     11002     10993     10990     10989     10994
     10993     10990     10989     10998     10993     10990     10989     11002
     10994     10989     10998     10999     10994     10989     10998     11000
     10994     10989     10998     11001     10994     10989     11002     11003
     10994     10989     11002     11004     10994     10989     11002     11005
     10995     10994     10989     10998     10995     10994     10989     11002
     10996     10994     10989     10998     10996     10994     10989     11002
     10997     10994     10989     10998     10997     10994     10989     11002
     10998     10989     11002     11003     10998     10989     11002     11004
     10998     10989     11002     11005     10999     10998     10989     11002
     11000     10998     10989     11002     11001     10998     10989     11002
     11002     11005     11011     11008     11003     11002     11005     11006
     11003     11002     11005     11007     11003     11002     11005     11011
     11004     11002     11005     11006     11004     11002     11005     11007
     11004     11002     11005     11011     11005     11011     11008     11009
     11005     11011     11008     11010     11005     11011     11008     11012
     11006     11005     11011     11008     11007     11005     11011     11008
     11008     11012     11013     11014     11008     11012     11013     11015
     11008     11012     11013     11016     11009     11008     11012     11013
     11010     11008     11012     11013     11011     11008     11012     11013
     11012     11013     11016     11017     11012     11013     11016     11018
     11012     11013     11016     11024     11013     11016     11018     11019
     11013     11016     11024     11025     11013     11016     11024     11026
     11013     11016     11024     11027     11014     11013     11016     11017
     11014     11013     11016     11018     11014     11013     11016     11024
     11015     11013     11016     11017     11015     11013     11016     11018
     11015     11013     11016     11024     11016     11018     11019     11020
     11016     11018     11019     11021     11016     11024     11027     11028
     11017     11016     11018     11019     11017     11016     11024     11025
     11017     11016     11024     11026     11017     11016     11024     11027
     11018     11016     11024     11025     11018     11016     11024     11026
     11018     11016     11024     11027     11018     11019     11021     11022
     11018     11019     11021     11023     11018     11019     11021     11033
     11019     11018     11016     11024     11019     11021     11033     11034
     11019     11021     11033     11035     11019     11021     11033     11036
     11020     11019     11021     11022     11020     11019     11021     11023
     11020     11019     11021     11033     11021     11033     11036     11037
     11021     11033     11036     11038     11021     11033     11036     11039
     11022     11021     11033     11034     11022     11021     11033     11035
     11022     11021     11033     11036     11023     11021     11033     11034
     11023     11021     11033     11035     11023     11021     11033     11036
     11024     11027     11028     11029     11024     11027     11028     11030
     11025     11024     11027     11028     11026     11024     11027     11028
     11027     11028     11030     11031     11027     11028     11030     11032
     11027     11028     11030     11078     11028     11030     11078     11079
     11028     11030     11078     11080     11028     11030     11078     11081
     11029     11028     11030     11031     11029     11028     11030     11032
     11029     11028     11030     11078     11030     11078     11081     11082
     11030     11078     11081     11083     11030     11078     11081     11084
     11031     11030     11078     11079     11031     11030     11078     11080
     11031     11030     11078     11081     11032     11030     11078     11079
     11032     11030     11078     11080     11032     11030     11078     11081
     11033     11036     11039     11040     11033     11036     11039     11041
     11033     11036     11039     11042     11034     11033     11036     11037
     11034     11033     11036     11038     11034     11033     11036     11039
     11035     11033     11036     11037     11035     11033     11036     11038
     11035     11033     11036     11039     11036     11039     11042     11043
     11036     11039     11042     11044     11036     11039     11042     11045
     11037     11036     11039     11040     11037     11036     11039     11041
     11037     11036     11039     11042     11038     11036     11039     11040
     11038     11036     11039     11041     11038     11036     11039     11042
     11039     11042     11045     11046     11039     11042     11045     11047
     11039     11042     11045     11048     11040     11039     11042     11043
     11040     11039     11042     11044     11040     11039     11042     11045
     11041     11039     11042     11043     11041     11039     11042     11044
     11041     11039     11042     11045     11042     11045     11048     11049
     11042     11045     11048     11050     11042     11045     11048     11051
     11043     11042     11045     11046     11043     11042     11045     11047
     11043     11042     11045     11048     11044     11042     11045     11046
     11044     11042     11045     11047     11044     11042     11045     11048
     11045     11048     11051     11052     11045     11048     11051     11053
     11046     11045     11048     11049     11046     11045     11048     11050
     11046     11045     11048     11051     11047     11045     11048     11049
     11047     11045     11048     11050     11047     11045     11048     11051
     11048     11051     11053     11054     11048     11051     11053     11055
     11049     11048     11051     11052     11049     11048     11051     11053
     11050     11048     11051     11052     11050     11048     11051     11053
     11051     11053     11055     11056     11051     11053     11055     11057
     11051     11053     11055     11058     11052     11051     11053     11054
     11052     11051     11053     11055     11053     11055     11058     11059
     11053     11055     11058     11060     11054     11053     11055     11056
     11054     11053     11055     11057     11054     11053     11055     11058
     11055     11058     11060     11061     11055     11058     11060     11062
     11056     11055     11058     11059     11056     11055     11058     11060
     11057     11055     11058     11059     11057     11055     11058     11060
     11058     11060     11062     11063     11058     11060     11062     11064
     11058     11060     11062     11065     11059     11058     11060     11061
     11059     11058     11060     11062     11060     11062     11065     11066
     11060     11062     11065     11067     11060     11062     11065     11068
     11061     11060     11062     11063     11061     11060     11062     11064
     11061     11060     11062     11065     11062     11065     11068     11069
     11062     11065     11068     11070     11062     11065     11068     11071
     11063     11062     11065     11066     11063     11062     11065     11067
     11063     11062     11065     11068     11064     11062     11065     11066
     11064     11062     11065     11067     11064     11062     11065     11068
     11065     11068     11071     11072     11065     11068     11071     11073
     11065     11068     11071     11074     11066     11065     11068     11069
     11066     11065     11068     11070     11066     11065     11068     11071
     11067     11065     11068     11069     11067     11065     11068     11070
     11067     11065     11068     11071     11068     11071     11074     11075
     11068     11071     11074     11076     11068     11071     11074     11077
     11069     11068     11071     11072     11069     11068     11071     11073
     11069     11068     11071     11074     11070     11068     11071     11072
     11070     11068     11071     11073     11070     11068     11071     11074
     11072     11071     11074     11075     11072     11071     11074     11076
     11072     11071     11074     11077     11073     11071     11074     11075
     11073     11071     11074     11076     11073     11071     11074     11077
     11078     11081     11084     11085     11078     11081     11084     11086
     11078     11081     11084     11087     11079     11078     11081     11082
     11079     11078     11081     11083     11079     11078     11081     11084
     11080     11078     11081     11082     11080     11078     11081     11083
     11080     11078     11081     11084     11081     11084     11087     11088
     11081     11084     11087     11089     11081     11084     11087     11090
     11082     11081     11084     11085     11082     11081     11084     11086
     11082     11081     11084     11087     11083     11081     11084     11085
     11083     11081     11084     11086     11083     11081     11084     11087
     11084     11087     11090     11091     11084     11087     11090     11092
     11084     11087     11090     11093     11085     11084     11087     11088
     11085     11084     11087     11089     11085     11084     11087     11090
     11086     11084     11087     11088     11086     11084     11087     11089
     11086     11084     11087     11090     11087     11090     11093     11094
     11087     11090     11093     11095     11087     11090     11093     11096
     11088     11087     11090     11091     11088     11087     11090     11092
     11088     11087     11090     11093     11089     11087     11090     11091
     11089     11087     11090     11092     11089     11087     11090     11093
     11090     11093     11096     11097     11090     11093     11096     11098
     11090     11093     11096     11099     11091     11090     11093     11094
     11091     11090     11093     11095     11091     11090     11093     11096
     11092     11090     11093     11094     11092     11090     11093     11095
     11092     11090     11093     11096     11093     11096     11099     11100
     11093     11096     11099     11101     11093     11096     11099     11102
     11094     11093     11096     11097     11094     11093     11096     11098
     11094     11093     11096     11099     11095     11093     11096     11097
     11095     11093     11096     11098     11095     11093     11096     11099
     11096     11099     11102     11103     11096     11099     11102     11104
     11096     11099     11102     11105     11097     11096     11099     11100
     11097     11096     11099     11101     11097     11096     11099     11102
     11098     11096     11099     11100     11098     11096     11099     11101
     11098     11096     11099     11102     11099     11102     11105     11106
     11099     11102     11105     11107     11099     11102     11105     11108
     11100     11099     11102     11103     11100     11099     11102     11104
     11100     11099     11102     11105     11101     11099     11102     11103
     11101     11099     11102     11104     11101     11099     11102     11105
     11102     11105     11108     11109     11102     11105     11108     11110
     11102     11105     11108     11111     11103     11102     11105     11106
     11103     11102     11105     11107     11103     11102     11105     11108
     11104     11102     11105     11106     11104     11102     11105     11107
     11104     11102     11105     11108     11105     11108     11111     11112
     11105     11108     11111     11113     11105     11108     11111     11114
     11106     11105     11108     11109     11106     11105     11108     11110
     11106     11105     11108     11111     11107     11105     11108     11109
     11107     11105     11108     11110     11107     11105     11108     11111
     11108     11111     11114     11115     11108     11111     11114     11116
     11108     11111     11114     11117     11109     11108     11111     11112
     11109     11108     11111     11113     11109     11108     11111     11114
     11110     11108     11111     11112     11110     11108     11111     11113
     11110     11108     11111     11114     11111     11114     11117     11118
     11111     11114     11117     11119     11111     11114     11117     11120
     11112     11111     11114     11115     11112     11111     11114     11116
     11112     11111     11114     11117     11113     11111     11114     11115
     11113     11111     11114     11116     11113     11111     11114     11117
     11114     11117     11120     11121     11114     11117     11120     11122
     11114     11117     11120     11123     11115     11114     11117     11118
     11115     11114     11117     11119     11115     11114     11117     11120
     11116     11114     11117     11118     11116     11114     11117     11119
     11116     11114     11117     11120     11117     11120     11123     11124
     11117     11120     11123     11125     11117     11120     11123     11126
     11118     11117     11120     11121     11118     11117     11120     11122
     11118     11117     11120     11123     11119     11117     11120     11121
     11119     11117     11120     11122     11119     11117     11120     11123
     11121     11120     11123     11124     11121     11120     11123     11125
     11121     11120     11123     11126     11122     11120     11123     11124
     11122     11120     11123     11125     11122     11120     11123     11126
     11127     11131     11133     11134     11127     11131     11133     11135
     11127     11131     11136     11137     11127     11131     11136     11138
     11127     11131     11136     11142     11128     11127     11131     11132
     11128     11127     11131     11133     11128     11127     11131     11136
     11129     11127     11131     11132     11129     11127     11131     11133
     11129     11127     11131     11136     11130     11127     11131     11132
     11130     11127     11131     11133     11130     11127     11131     11136
     11131     11136     11142     11139     11132     11131     11133     11134
     11132     11131     11133     11135     11132     11131     11136     11137
     11132     11131     11136     11138     11132     11131     11136     11142
     11133     11131     11136     11137     11133     11131     11136     11138
     11133     11131     11136     11142     11134     11133     11131     11136
     11135     11133     11131     11136     11136     11142     11139     11140
     11136     11142     11139     11141     11136     11142     11139     11143
     11137     11136     11142     11139     11138     11136     11142     11139
     11139     11143     11144     11145     11139     11143     11144     11146
     11139     11143     11144     11147     11140     11139     11143     11144
     11141     11139     11143     11144     11142     11139     11143     11144
     11143     11144     11147     11148     11143     11144     11147     11149
     11143     11144     11147     11155     11144     11147     11149     11150
     11144     11147     11155     11156     11144     11147     11155     11157
     11144     11147     11155     11158     11145     11144     11147     11148
     11145     11144     11147     11149     11145     11144     11147     11155
     11146     11144     11147     11148     11146     11144     11147     11149
     11146     11144     11147     11155     11147     11149     11150     11151
     11147     11149     11150     11152     11147     11155     11158     11159
     11148     11147     11149     11150     11148     11147     11155     11156
     11148     11147     11155     11157     11148     11147     11155     11158
     11149     11147     11155     11156     11149     11147     11155     11157
     11149     11147     11155     11158     11149     11150     11152     11153
     11149     11150     11152     11154     11149     11150     11152     11164
     11150     11149     11147     11155     11150     11152     11164     11165
     11150     11152     11164     11166     11150     11152     11164     11167
     11151     11150     11152     11153     11151     11150     11152     11154
     11151     11150     11152     11164     11152     11164     11167     11168
     11152     11164     11167     11169     11152     11164     11167     11170
     11153     11152     11164     11165     11153     11152     11164     11166
     11153     11152     11164     11167     11154     11152     11164     11165
     11154     11152     11164     11166     11154     11152     11164     11167
     11155     11158     11159     11160     11155     11158     11159     11161
     11156     11155     11158     11159     11157     11155     11158     11159
     11158     11159     11161     11162     11158     11159     11161     11163
     11158     11159     11161     11211     11159     11161     11211     11212
     11159     11161     11211     11213     11159     11161     11211     11214
     11160     11159     11161     11162     11160     11159     11161     11163
     11160     11159     11161     11211     11161     11211     11214     11215
     11161     11211     11214     11216     11161     11211     11214     11217
     11162     11161     11211     11212     11162     11161     11211     11213
     11162     11161     11211     11214     11163     11161     11211     11212
     11163     11161     11211     11213     11163     11161     11211     11214
     11164     11167     11170     11171     11164     11167     11170     11172
     11165     11164     11167     11168     11165     11164     11167     11169
     11165     11164     11167     11170     11166     11164     11167     11168
     11166     11164     11167     11169     11166     11164     11167     11170
     11167     11170     11172     11173     11167     11170     11172     11174
     11168     11167     11170     11171     11168     11167     11170     11172
     11169     11167     11170     11171     11169     11167     11170     11172
     11170     11172     11174     11175     11170     11172     11174     11176
     11170     11172     11174     11177     11171     11170     11172     11173
     11171     11170     11172     11174     11172     11174     11177     11178
     11172     11174     11177     11179     11173     11172     11174     11175
     11173     11172     11174     11176     11173     11172     11174     11177
     11174     11177     11179     11180     11174     11177     11179     11181
     11175     11174     11177     11178     11175     11174     11177     11179
     11176     11174     11177     11178     11176     11174     11177     11179
     11177     11179     11181     11182     11177     11179     11181     11183
     11177     11179     11181     11184     11178     11177     11179     11180
     11178     11177     11179     11181     11179     11181     11184     11185
     11179     11181     11184     11186     11180     11179     11181     11182
     11180     11179     11181     11183     11180     11179     11181     11184
     11181     11184     11186     11187     11181     11184     11186     11188
     11182     11181     11184     11185     11182     11181     11184     11186
     11183     11181     11184     11185     11183     11181     11184     11186
     11184     11186     11188     11189     11184     11186     11188     11190
     11184     11186     11188     11191     11185     11184     11186     11187
     11185     11184     11186     11188     11186     11188     11191     11192
     11186     11188     11191     11193     11187     11186     11188     11189
     11187     11186     11188     11190     11187     11186     11188     11191
     11188     11191     11193     11194     11188     11191     11193     11195
     11189     11188     11191     11192     11189     11188     11191     11193
     11190     11188     11191     11192     11190     11188     11191     11193
     11191     11193     11195     11196     11191     11193     11195     11197
     11191     11193     11195     11198     11192     11191     11193     11194
     11192     11191     11193     11195     11193     11195     11198     11199
     11193     11195     11198     11200     11193     11195     11198     11201
     11194     11193     11195     11196     11194     11193     11195     11197
     11194     11193     11195     11198     11195     11198     11201     11202
     11195     11198     11201     11203     11195     11198     11201     11204
     11196     11195     11198     11199     11196     11195     11198     11200
     11196     11195     11198     11201     11197     11195     11198     11199
     11197     11195     11198     11200     11197     11195     11198     11201
     11198     11201     11204     11205     11198     11201     11204     11206
     11198     11201     11204     11207     11199     11198     11201     11202
     11199     11198     11201     11203     11199     11198     11201     11204
     11200     11198     11201     11202     11200     11198     11201     11203
     11200     11198     11201     11204     11201     11204     11207     11208
     11201     11204     11207     11209     11201     11204     11207     11210
     11202     11201     11204     11205     11202     11201     11204     11206
     11202     11201     11204     11207     11203     11201     11204     11205
     11203     11201     11204     11206     11203     11201     11204     11207
     11205     11204     11207     11208     11205     11204     11207     11209
     11205     11204     11207     11210     11206     11204     11207     11208
     11206     11204     11207     11209     11206     11204     11207     11210
     11211     11214     11217     11218     11211     11214     11217     11219
     11211     11214     11217     11220     11212     11211     11214     11215
     11212     11211     11214     11216     11212     11211     11214     11217
     11213     11211     11214     11215     11213     11211     11214     11216
     11213     11211     11214     11217     11214     11217     11220     11221
     11214     11217     11220     11222     11214     11217     11220     11223
     11215     11214     11217     11218     11215     11214     11217     11219
     11215     11214     11217     11220     11216     11214     11217     11218
     11216     11214     11217     11219     11216     11214     11217     11220
     11217     11220     11223     11224     11217     11220     11223     11225
     11217     11220     11223     11226     11218     11217     11220     11221
     11218     11217     11220     11222     11218     11217     11220     11223
     11219     11217     11220     11221     11219     11217     11220     11222
     11219     11217     11220     11223     11220     11223     11226     11227
     11220     11223     11226     11228     11220     11223     11226     11229
     11221     11220     11223     11224     11221     11220     11223     11225
     11221     11220     11223     11226     11222     11220     11223     11224
     11222     11220     11223     11225     11222     11220     11223     11226
     11223     11226     11229     11230     11223     11226     11229     11231
     11223     11226     11229     11232     11224     11223     11226     11227
     11224     11223     11226     11228     11224     11223     11226     11229
     11225     11223     11226     11227     11225     11223     11226     11228
     11225     11223     11226     11229     11226     11229     11232     11233
     11226     11229     11232     11234     11226     11229     11232     11235
     11227     11226     11229     11230     11227     11226     11229     11231
     11227     11226     11229     11232     11228     11226     11229     11230
     11228     11226     11229     11231     11228     11226     11229     11232
     11229     11232     11235     11236     11229     11232     11235     11237
     11229     11232     11235     11238     11230     11229     11232     11233
     11230     11229     11232     11234     11230     11229     11232     11235
     11231     11229     11232     11233     11231     11229     11232     11234
     11231     11229     11232     11235     11232     11235     11238     11239
     11232     11235     11238     11240     11232     11235     11238     11241
     11233     11232     11235     11236     11233     11232     11235     11237
     11233     11232     11235     11238     11234     11232     11235     11236
     11234     11232     11235     11237     11234     11232     11235     11238
     11235     11238     11241     11242     11235     11238     11241     11243
     11235     11238     11241     11244     11236     11235     11238     11239
     11236     11235     11238     11240     11236     11235     11238     11241
     11237     11235     11238     11239     11237     11235     11238     11240
     11237     11235     11238     11241     11238     11241     11244     11245
     11238     11241     11244     11246     11238     11241     11244     11247
     11239     11238     11241     11242     11239     11238     11241     11243
     11239     11238     11241     11244     11240     11238     11241     11242
     11240     11238     11241     11243     11240     11238     11241     11244
     11241     11244     11247     11248     11241     11244     11247     11249
     11241     11244     11247     11250     11242     11241     11244     11245
     11242     11241     11244     11246     11242     11241     11244     11247
     11243     11241     11244     11245     11243     11241     11244     11246
     11243     11241     11244     11247     11244     11247     11250     11251
     11244     11247     11250     11252     11244     11247     11250     11253
     11245     11244     11247     11248     11245     11244     11247     11249
     11245     11244     11247     11250     11246     11244     11247     11248
     11246     11244     11247     11249     11246     11244     11247     11250
     11247     11250     11253     11254     11247     11250     11253     11255
     11247     11250     11253     11256     11248     11247     11250     11251
     11248     11247     11250     11252     11248     11247     11250     11253
     11249     11247     11250     11251     11249     11247     11250     11252
     11249     11247     11250     11253     11250     11253     11256     11257
     11250     11253     11256     11258     11250     11253     11256     11259
     11251     11250     11253     11254     11251     11250     11253     11255
     11251     11250     11253     11256     11252     11250     11253     11254
     11252     11250     11253     11255     11252     11250     11253     11256
     11254     11253     11256     11257     11254     11253     11256     11258
     11254     11253     11256     11259     11255     11253     11256     11257
     11255     11253     11256     11258     11255     11253     11256     11259
     11260     11264     11267     11268     11260     11264     11267     11269
     11260     11264     11267     11273     11261     11260     11264     11265
     11261     11260     11264     11266     11261     11260     11264     11267
     11262     11260     11264     11265     11262     11260     11264     11266
     11262     11260     11264     11267     11263     11260     11264     11265
     11263     11260     11264     11266     11263     11260     11264     11267
     11264     11267     11273     11270     11265     11264     11267     11268
     11265     11264     11267     11269     11265     11264     11267     11273
     11266     11264     11267     11268     11266     11264     11267     11269
     11266     11264     11267     11273     11267     11273     11270     11271
     11267     11273     11270     11272     11267     11273     11270     11274
     11268     11267     11273     11270     11269     11267     11273     11270
     11270     11274     11275     11276     11270     11274     11275     11277
     11270     11274     11275     11278     11271     11270     11274     11275
     11272     11270     11274     11275     11273     11270     11274     11275
     11274     11275     11278     11279     11274     11275     11278     11280
     11274     11275     11278     11286     11275     11278     11280     11281
     11275     11278     11286     11287     11275     11278     11286     11288
     11275     11278     11286     11289     11276     11275     11278     11279
     11276     11275     11278     11280     11276     11275     11278     11286
     11277     11275     11278     11279     11277     11275     11278     11280
     11277     11275     11278     11286     11278     11280     11281     11282
     11278     11280     11281     11283     11278     11286     11289     11290
     11279     11278     11280     11281     11279     11278     11286     11287
     11279     11278     11286     11288     11279     11278     11286     11289
     11280     11278     11286     11287     11280     11278     11286     11288
     11280     11278     11286     11289     11280     11281     11283     11284
     11280     11281     11283     11285     11280     11281     11283     11295
     11281     11280     11278     11286     11281     11283     11295     11296
     11281     11283     11295     11297     11281     11283     11295     11298
     11282     11281     11283     11284     11282     11281     11283     11285
     11282     11281     11283     11295     11283     11295     11298     11299
     11283     11295     11298     11300     11283     11295     11298     11301
     11284     11283     11295     11296     11284     11283     11295     11297
     11284     11283     11295     11298     11285     11283     11295     11296
     11285     11283     11295     11297     11285     11283     11295     11298
     11286     11289     11290     11291     11286     11289     11290     11292
     11287     11286     11289     11290     11288     11286     11289     11290
     11289     11290     11292     11293     11289     11290     11292     11294
     11289     11290     11292     11342     11290     11292     11342     11343
     11290     11292     11342     11344     11290     11292     11342     11345
     11291     11290     11292     11293     11291     11290     11292     11294
     11291     11290     11292     11342     11292     11342     11345     11346
     11292     11342     11345     11347     11292     11342     11345     11348
     11293     11292     11342     11343     11293     11292     11342     11344
     11293     11292     11342     11345     11294     11292     11342     11343
     11294     11292     11342     11344     11294     11292     11342     11345
     11295     11298     11301     11302     11295     11298     11301     11303
     11295     11298     11301     11304     11296     11295     11298     11299
     11296     11295     11298     11300     11296     11295     11298     11301
     11297     11295     11298     11299     11297     11295     11298     11300
     11297     11295     11298     11301     11298     11301     11304     11305
     11298     11301     11304     11306     11298     11301     11304     11307
     11299     11298     11301     11302     11299     11298     11301     11303
     11299     11298     11301     11304     11300     11298     11301     11302
     11300     11298     11301     11303     11300     11298     11301     11304
     11301     11304     11307     11308     11301     11304     11307     11309
     11301     11304     11307     11310     11302     11301     11304     11305
     11302     11301     11304     11306     11302     11301     11304     11307
     11303     11301     11304     11305     11303     11301     11304     11306
     11303     11301     11304     11307     11304     11307     11310     11311
     11304     11307     11310     11312     11304     11307     11310     11313
     11305     11304     11307     11308     11305     11304     11307     11309
     11305     11304     11307     11310     11306     11304     11307     11308
     11306     11304     11307     11309     11306     11304     11307     11310
     11307     11310     11313     11314     11307     11310     11313     11315
     11308     11307     11310     11311     11308     11307     11310     11312
     11308     11307     11310     11313     11309     11307     11310     11311
     11309     11307     11310     11312     11309     11307     11310     11313
     11310     11313     11315     11316     11310     11313     11315     11317
     11311     11310     11313     11314     11311     11310     11313     11315
     11312     11310     11313     11314     11312     11310     11313     11315
     11313     11315     11317     11318     11313     11315     11317     11319
     11313     11315     11317     11320     11314     11313     11315     11316
     11314     11313     11315     11317     11315     11317     11320     11321
     11315     11317     11320     11322     11315     11317     11320     11323
     11316     11315     11317     11318     11316     11315     11317     11319
     11316     11315     11317     11320     11317     11320     11323     11324
     11317     11320     11323     11325     11317     11320     11323     11326
     11318     11317     11320     11321     11318     11317     11320     11322
     11318     11317     11320     11323     11319     11317     11320     11321
     11319     11317     11320     11322     11319     11317     11320     11323
     11320     11323     11326     11327     11320     11323     11326     11328
     11320     11323     11326     11329     11321     11320     11323     11324
     11321     11320     11323     11325     11321     11320     11323     11326
     11322     11320     11323     11324     11322     11320     11323     11325
     11322     11320     11323     11326     11323     11326     11329     11330
     11323     11326     11329     11331     11323     11326     11329     11332
     11324     11323     11326     11327     11324     11323     11326     11328
     11324     11323     11326     11329     11325     11323     11326     11327
     11325     11323     11326     11328     11325     11323     11326     11329
     11326     11329     11332     11333     11326     11329     11332     11334
     11326     11329     11332     11335     11327     11326     11329     11330
     11327     11326     11329     11331     11327     11326     11329     11332
     11328     11326     11329     11330     11328     11326     11329     11331
     11328     11326     11329     11332     11329     11332     11335     11336
     11329     11332     11335     11337     11329     11332     11335     11338
     11330     11329     11332     11333     11330     11329     11332     11334
     11330     11329     11332     11335     11331     11329     11332     11333
     11331     11329     11332     11334     11331     11329     11332     11335
     11332     11335     11338     11339     11332     11335     11338     11340
     11332     11335     11338     11341     11333     11332     11335     11336
     11333     11332     11335     11337     11333     11332     11335     11338
     11334     11332     11335     11336     11334     11332     11335     11337
     11334     11332     11335     11338     11336     11335     11338     11339
     11336     11335     11338     11340     11336     11335     11338     11341
     11337     11335     11338     11339     11337     11335     11338     11340
     11337     11335     11338     11341     11342     11345     11348     11349
     11342     11345     11348     11350     11342     11345     11348     11351
     11343     11342     11345     11346     11343     11342     11345     11347
     11343     11342     11345     11348     11344     11342     11345     11346
     11344     11342     11345     11347     11344     11342     11345     11348
     11345     11348     11351     11352     11345     11348     11351     11353
     11345     11348     11351     11354     11346     11345     11348     11349
     11346     11345     11348     11350     11346     11345     11348     11351
     11347     11345     11348     11349     11347     11345     11348     11350
     11347     11345     11348     11351     11348     11351     11354     11355
     11348     11351     11354     11356     11348     11351     11354     11357
     11349     11348     11351     11352     11349     11348     11351     11353
     11349     11348     11351     11354     11350     11348     11351     11352
     11350     11348     11351     11353     11350     11348     11351     11354
     11351     11354     11357     11358     11351     11354     11357     11359
     11351     11354     11357     11360     11352     11351     11354     11355
     11352     11351     11354     11356     11352     11351     11354     11357
     11353     11351     11354     11355     11353     11351     11354     11356
     11353     11351     11354     11357     11354     11357     11360     11361
     11354     11357     11360     11362     11354     11357     11360     11363
     11355     11354     11357     11358     11355     11354     11357     11359
     11355     11354     11357     11360     11356     11354     11357     11358
     11356     11354     11357     11359     11356     11354     11357     11360
     11357     11360     11363     11364     11357     11360     11363     11365
     11357     11360     11363     11366     11358     11357     11360     11361
     11358     11357     11360     11362     11358     11357     11360     11363
     11359     11357     11360     11361     11359     11357     11360     11362
     11359     11357     11360     11363     11360     11363     11366     11367
     11360     11363     11366     11368     11360     11363     11366     11369
     11361     11360     11363     11364     11361     11360     11363     11365
     11361     11360     11363     11366     11362     11360     11363     11364
     11362     11360     11363     11365     11362     11360     11363     11366
     11363     11366     11369     11370     11363     11366     11369     11371
     11363     11366     11369     11372     11364     11363     11366     11367
     11364     11363     11366     11368     11364     11363     11366     11369
     11365     11363     11366     11367     11365     11363     11366     11368
     11365     11363     11366     11369     11366     11369     11372     11373
     11366     11369     11372     11374     11366     11369     11372     11375
     11367     11366     11369     11370     11367     11366     11369     11371
     11367     11366     11369     11372     11368     11366     11369     11370
     11368     11366     11369     11371     11368     11366     11369     11372
     11369     11372     11375     11376     11369     11372     11375     11377
     11369     11372     11375     11378     11370     11369     11372     11373
     11370     11369     11372     11374     11370     11369     11372     11375
     11371     11369     11372     11373     11371     11369     11372     11374
     11371     11369     11372     11375     11372     11375     11378     11379
     11372     11375     11378     11380     11372     11375     11378     11381
     11373     11372     11375     11376     11373     11372     11375     11377
     11373     11372     11375     11378     11374     11372     11375     11376
     11374     11372     11375     11377     11374     11372     11375     11378
     11375     11378     11381     11382     11375     11378     11381     11383
     11375     11378     11381     11384     11376     11375     11378     11379
     11376     11375     11378     11380     11376     11375     11378     11381
     11377     11375     11378     11379     11377     11375     11378     11380
     11377     11375     11378     11381     11378     11381     11384     11385
     11378     11381     11384     11386     11378     11381     11384     11387
     11379     11378     11381     11382     11379     11378     11381     11383
     11379     11378     11381     11384     11380     11378     11381     11382
     11380     11378     11381     11383     11380     11378     11381     11384
     11381     11384     11387     11388     11381     11384     11387     11389
     11381     11384     11387     11390     11382     11381     11384     11385
     11382     11381     11384     11386     11382     11381     11384     11387
     11383     11381     11384     11385     11383     11381     11384     11386
     11383     11381     11384     11387     11385     11384     11387     11388
     11385     11384     11387     11389     11385     11384     11387     11390
     11386     11384     11387     11388     11386     11384     11387     11389
     11386     11384     11387     11390     11391     11392     11407     11408
     11391     11392     11407     11409     11391     11392     11407     11413
     11392     11391     11395     11396     11392     11391     11395     11397
     11392     11391     11395     11398     11392     11391     11399     11400
     11392     11391     11399     11401     11392     11391     11399     11402
     11392     11391     11403     11404     11392     11391     11403     11405
     11392     11391     11403     11406     11392     11407     11413     11410
     11393     11392     11391     11395     11393     11392     11391     11399
     11393     11392     11391     11403     11393     11392     11407     11408
     11393     11392     11407     11409     11393     11392     11407     11413
     11394     11392     11391     11395     11394     11392     11391     11399
     11394     11392     11391     11403     11394     11392     11407     11408
     11394     11392     11407     11409     11394     11392     11407     11413
     11395     11391     11392     11407     11395     11391     11399     11400
     11395     11391     11399     11401     11395     11391     11399     11402
     11395     11391     11403     11404     11395     11391     11403     11405
     11395     11391     11403     11406     11396     11395     11391     11399
     11396     11395     11391     11403     11397     11395     11391     11399
     11397     11395     11391     11403     11398     11395     11391     11399
     11398     11395     11391     11403     11399     11391     11392     11407
     11399     11391     11403     11404     11399     11391     11403     11405
     11399     11391     11403     11406     11400     11399     11391     11403
     11401     11399     11391     11403     11402     11399     11391     11403
     11403     11391     11392     11407     11407     11413     11410     11411
     11407     11413     11410     11412     11407     11413     11410     11414
     11408     11407     11413     11410     11409     11407     11413     11410
     11410     11414     11415     11416     11410     11414     11415     11417
     11410     11414     11415     11418     11411     11410     11414     11415
     11412     11410     11414     11415     11413     11410     11414     11415
     11414     11415     11418     11419     11414     11415     11418     11420
     11414     11415     11418     11426     11415     11418     11420     11421
     11415     11418     11426     11427     11415     11418     11426     11428
     11415     11418     11426     11429     11416     11415     11418     11419
     11416     11415     11418     11420     11416     11415     11418     11426
     11417     11415     11418     11419     11417     11415     11418     11420
     11417     11415     11418     11426     11418     11420     11421     11422
     11418     11420     11421     11423     11418     11426     11429     11430
     11419     11418     11420     11421     11419     11418     11426     11427
     11419     11418     11426     11428     11419     11418     11426     11429
     11420     11418     11426     11427     11420     11418     11426     11428
     11420     11418     11426     11429     11420     11421     11423     11424
     11420     11421     11423     11425     11420     11421     11423     11435
     11421     11420     11418     11426     11421     11423     11435     11436
     11421     11423     11435     11437     11421     11423     11435     11438
     11422     11421     11423     11424     11422     11421     11423     11425
     11422     11421     11423     11435     11423     11435     11438     11439
     11423     11435     11438     11440     11423     11435     11438     11441
     11424     11423     11435     11436     11424     11423     11435     11437
     11424     11423     11435     11438     11425     11423     11435     11436
     11425     11423     11435     11437     11425     11423     11435     11438
     11426     11429     11430     11431     11426     11429     11430     11432
     11427     11426     11429     11430     11428     11426     11429     11430
     11429     11430     11432     11433     11429     11430     11432     11434
     11429     11430     11432     11482     11430     11432     11482     11483
     11430     11432     11482     11484     11430     11432     11482     11485
     11431     11430     11432     11433     11431     11430     11432     11434
     11431     11430     11432     11482     11432     11482     11485     11486
     11432     11482     11485     11487     11432     11482     11485     11488
     11433     11432     11482     11483     11433     11432     11482     11484
     11433     11432     11482     11485     11434     11432     11482     11483
     11434     11432     11482     11484     11434     11432     11482     11485
     11435     11438     11441     11442     11435     11438     11441     11443
     11436     11435     11438     11439     11436     11435     11438     11440
     11436     11435     11438     11441     11437     11435     11438     11439
     11437     11435     11438     11440     11437     11435     11438     11441
     11438     11441     11443     11444     11438     11441     11443     11445
     11439     11438     11441     11442     11439     11438     11441     11443
     11440     11438     11441     11442     11440     11438     11441     11443
     11441     11443     11445     11446     11441     11443     11445     11447
     11441     11443     11445     11448     11442     11441     11443     11444
     11442     11441     11443     11445     11443     11445     11448     11449
     11443     11445     11448     11450     11444     11443     11445     11446
     11444     11443     11445     11447     11444     11443     11445     11448
     11445     11448     11450     11451     11445     11448     11450     11452
     11446     11445     11448     11449     11446     11445     11448     11450
     11447     11445     11448     11449     11447     11445     11448     11450
     11448     11450     11452     11453     11448     11450     11452     11454
     11448     11450     11452     11455     11449     11448     11450     11451
     11449     11448     11450     11452     11450     11452     11455     11456
     11450     11452     11455     11457     11451     11450     11452     11453
     11451     11450     11452     11454     11451     11450     11452     11455
     11452     11455     11457     11458     11452     11455     11457     11459
     11453     11452     11455     11456     11453     11452     11455     11457
     11454     11452     11455     11456     11454     11452     11455     11457
     11455     11457     11459     11460     11455     11457     11459     11461
     11455     11457     11459     11462     11456     11455     11457     11458
     11456     11455     11457     11459     11457     11459     11462     11463
     11457     11459     11462     11464     11458     11457     11459     11460
     11458     11457     11459     11461     11458     11457     11459     11462
     11459     11462     11464     11465     11459     11462     11464     11466
     11460     11459     11462     11463     11460     11459     11462     11464
     11461     11459     11462     11463     11461     11459     11462     11464
     11462     11464     11466     11467     11462     11464     11466     11468
     11462     11464     11466     11469     11463     11462     11464     11465
     11463     11462     11464     11466     11464     11466     11469     11470
     11464     11466     11469     11471     11464     11466     11469     11472
     11465     11464     11466     11467     11465     11464     11466     11468
     11465     11464     11466     11469     11466     11469     11472     11473
     11466     11469     11472     11474     11466     11469     11472     11475
     11467     11466     11469     11470     11467     11466     11469     11471
     11467     11466     11469     11472     11468     11466     11469     11470
     11468     11466     11469     11471     11468     11466     11469     11472
     11469     11472     11475     11476     11469     11472     11475     11477
     11469     11472     11475     11478     11470     11469     11472     11473
     11470     11469     11472     11474     11470     11469     11472     11475
     11471     11469     11472     11473     11471     11469     11472     11474
     11471     11469     11472     11475     11472     11475     11478     11479
     11472     11475     11478     11480     11472     11475     11478     11481
     11473     11472     11475     11476     11473     11472     11475     11477
     11473     11472     11475     11478     11474     11472     11475     11476
     11474     11472     11475     11477     11474     11472     11475     11478
     11476     11475     11478     11479     11476     11475     11478     11480
     11476     11475     11478     11481     11477     11475     11478     11479
     11477     11475     11478     11480     11477     11475     11478     11481
     11482     11485     11488     11489     11482     11485     11488     11490
     11482     11485     11488     11491     11483     11482     11485     11486
     11483     11482     11485     11487     11483     11482     11485     11488
     11484     11482     11485     11486     11484     11482     11485     11487
     11484     11482     11485     11488     11485     11488     11491     11492
     11485     11488     11491     11493     11485     11488     11491     11494
     11486     11485     11488     11489     11486     11485     11488     11490
     11486     11485     11488     11491     11487     11485     11488     11489
     11487     11485     11488     11490     11487     11485     11488     11491
     11488     11491     11494     11495     11488     11491     11494     11496
     11488     11491     11494     11497     11489     11488     11491     11492
     11489     11488     11491     11493     11489     11488     11491     11494
     11490     11488     11491     11492     11490     11488     11491     11493
     11490     11488     11491     11494     11491     11494     11497     11498
     11491     11494     11497     11499     11491     11494     11497     11500
     11492     11491     11494     11495     11492     11491     11494     11496
     11492     11491     11494     11497     11493     11491     11494     11495
     11493     11491     11494     11496     11493     11491     11494     11497
     11494     11497     11500     11501     11494     11497     11500     11502
     11494     11497     11500     11503     11495     11494     11497     11498
     11495     11494     11497     11499     11495     11494     11497     11500
     11496     11494     11497     11498     11496     11494     11497     11499
     11496     11494     11497     11500     11497     11500     11503     11504
     11497     11500     11503     11505     11497     11500     11503     11506
     11498     11497     11500     11501     11498     11497     11500     11502
     11498     11497     11500     11503     11499     11497     11500     11501
     11499     11497     11500     11502     11499     11497     11500     11503
     11500     11503     11506     11507     11500     11503     11506     11508
     11500     11503     11506     11509     11501     11500     11503     11504
     11501     11500     11503     11505     11501     11500     11503     11506
     11502     11500     11503     11504     11502     11500     11503     11505
     11502     11500     11503     11506     11503     11506     11509     11510
     11503     11506     11509     11511     11503     11506     11509     11512
     11504     11503     11506     11507     11504     11503     11506     11508
     11504     11503     11506     11509     11505     11503     11506     11507
     11505     11503     11506     11508     11505     11503     11506     11509
     11506     11509     11512     11513     11506     11509     11512     11514
     11506     11509     11512     11515     11507     11506     11509     11510
     11507     11506     11509     11511     11507     11506     11509     11512
     11508     11506     11509     11510     11508     11506     11509     11511
     11508     11506     11509     11512     11509     11512     11515     11516
     11509     11512     11515     11517     11509     11512     11515     11518
     11510     11509     11512     11513     11510     11509     11512     11514
     11510     11509     11512     11515     11511     11509     11512     11513
     11511     11509     11512     11514     11511     11509     11512     11515
     11512     11515     11518     11519     11512     11515     11518     11520
     11512     11515     11518     11521     11513     11512     11515     11516
     11513     11512     11515     11517     11513     11512     11515     11518
     11514     11512     11515     11516     11514     11512     11515     11517
     11514     11512     11515     11518     11515     11518     11521     11522
     11515     11518     11521     11523     11515     11518     11521     11524
     11516     11515     11518     11519     11516     11515     11518     11520
     11516     11515     11518     11521     11517     11515     11518     11519
     11517     11515     11518     11520     11517     11515     11518     11521
     11518     11521     11524     11525     11518     11521     11524     11526
     11518     11521     11524     11527     11519     11518     11521     11522
     11519     11518     11521     11523     11519     11518     11521     11524
     11520     11518     11521     11522     11520     11518     11521     11523
     11520     11518     11521     11524     11521     11524     11527     11528
     11521     11524     11527     11529     11521     11524     11527     11530
     11522     11521     11524     11525     11522     11521     11524     11526
     11522     11521     11524     11527     11523     11521     11524     11525
     11523     11521     11524     11526     11523     11521     11524     11527
     11525     11524     11527     11528     11525     11524     11527     11529
     11525     11524     11527     11530     11526     11524     11527     11528
     11526     11524     11527     11529     11526     11524     11527     11530
     11531     11535     11538     11539     11531     11535     11538     11540
     11531     11535     11538     11544     11532     11531     11535     11536
     11532     11531     11535     11537     11532     11531     11535     11538
     11533     11531     11535     11536     11533     11531     11535     11537
     11533     11531     11535     11538     11534     11531     11535     11536
     11534     11531     11535     11537     11534     11531     11535     11538
     11535     11538     11544     11541     11536     11535     11538     11539
     11536     11535     11538     11540     11536     11535     11538     11544
     11537     11535     11538     11539     11537     11535     11538     11540
     11537     11535     11538     11544     11538     11544     11541     11542
     11538     11544     11541     11543     11538     11544     11541     11545
     11539     11538     11544     11541     11540     11538     11544     11541
     11541     11545     11546     11547     11541     11545     11546     11548
     11541     11545     11546     11549     11542     11541     11545     11546
     11543     11541     11545     11546     11544     11541     11545     11546
     11545     11546     11549     11550     11545     11546     11549     11551
     11545     11546     11549     11557     11546     11549     11551     11552
     11546     11549     11557     11558     11546     11549     11557     11559
     11546     11549     11557     11560     11547     11546     11549     11550
     11547     11546     11549     11551     11547     11546     11549     11557
     11548     11546     11549     11550     11548     11546     11549     11551
     11548     11546     11549     11557     11549     11551     11552     11553
     11549     11551     11552     11554     11549     11557     11560     11561
     11550     11549     11551     11552     11550     11549     11557     11558
     11550     11549     11557     11559     11550     11549     11557     11560
     11551     11549     11557     11558     11551     11549     11557     11559
     11551     11549     11557     11560     11551     11552     11554     11555
     11551     11552     11554     11556     11551     11552     11554     11566
     11552     11551     11549     11557     11552     11554     11566     11567
     11552     11554     11566     11568     11552     11554     11566     11569
     11553     11552     11554     11555     11553     11552     11554     11556
     11553     11552     11554     11566     11554     11566     11569     11570
     11554     11566     11569     11571     11554     11566     11569     11572
     11555     11554     11566     11567     11555     11554     11566     11568
     11555     11554     11566     11569     11556     11554     11566     11567
     11556     11554     11566     11568     11556     11554     11566     11569
     11557     11560     11561     11562     11557     11560     11561     11563
     11558     11557     11560     11561     11559     11557     11560     11561
     11560     11561     11563     11564     11560     11561     11563     11565
     11560     11561     11563     11613     11561     11563     11613     11614
     11561     11563     11613     11615     11561     11563     11613     11616
     11562     11561     11563     11564     11562     11561     11563     11565
     11562     11561     11563     11613     11563     11613     11616     11617
     11563     11613     11616     11618     11563     11613     11616     11619
     11564     11563     11613     11614     11564     11563     11613     11615
     11564     11563     11613     11616     11565     11563     11613     11614
     11565     11563     11613     11615     11565     11563     11613     11616
     11566     11569     11572     11573     11566     11569     11572     11574
     11567     11566     11569     11570     11567     11566     11569     11571
     11567     11566     11569     11572     11568     11566     11569     11570
     11568     11566     11569     11571     11568     11566     11569     11572
     11569     11572     11574     11575     11569     11572     11574     11576
     11570     11569     11572     11573     11570     11569     11572     11574
     11571     11569     11572     11573     11571     11569     11572     11574
     11572     11574     11576     11577     11572     11574     11576     11578
     11572     11574     11576     11579     11573     11572     11574     11575
     11573     11572     11574     11576     11574     11576     11579     11580
     11574     11576     11579     11581     11575     11574     11576     11577
     11575     11574     11576     11578     11575     11574     11576     11579
     11576     11579     11581     11582     11576     11579     11581     11583
     11577     11576     11579     11580     11577     11576     11579     11581
     11578     11576     11579     11580     11578     11576     11579     11581
     11579     11581     11583     11584     11579     11581     11583     11585
     11579     11581     11583     11586     11580     11579     11581     11582
     11580     11579     11581     11583     11581     11583     11586     11587
     11581     11583     11586     11588     11582     11581     11583     11584
     11582     11581     11583     11585     11582     11581     11583     11586
     11583     11586     11588     11589     11583     11586     11588     11590
     11584     11583     11586     11587     11584     11583     11586     11588
     11585     11583     11586     11587     11585     11583     11586     11588
     11586     11588     11590     11591     11586     11588     11590     11592
     11586     11588     11590     11593     11587     11586     11588     11589
     11587     11586     11588     11590     11588     11590     11593     11594
     11588     11590     11593     11595     11589     11588     11590     11591
     11589     11588     11590     11592     11589     11588     11590     11593
     11590     11593     11595     11596     11590     11593     11595     11597
     11591     11590     11593     11594     11591     11590     11593     11595
     11592     11590     11593     11594     11592     11590     11593     11595
     11593     11595     11597     11598     11593     11595     11597     11599
     11593     11595     11597     11600     11594     11593     11595     11596
     11594     11593     11595     11597     11595     11597     11600     11601
     11595     11597     11600     11602     11595     11597     11600     11603
     11596     11595     11597     11598     11596     11595     11597     11599
     11596     11595     11597     11600     11597     11600     11603     11604
     11597     11600     11603     11605     11597     11600     11603     11606
     11598     11597     11600     11601     11598     11597     11600     11602
     11598     11597     11600     11603     11599     11597     11600     11601
     11599     11597     11600     11602     11599     11597     11600     11603
     11600     11603     11606     11607     11600     11603     11606     11608
     11600     11603     11606     11609     11601     11600     11603     11604
     11601     11600     11603     11605     11601     11600     11603     11606
     11602     11600     11603     11604     11602     11600     11603     11605
     11602     11600     11603     11606     11603     11606     11609     11610
     11603     11606     11609     11611     11603     11606     11609     11612
     11604     11603     11606     11607     11604     11603     11606     11608
     11604     11603     11606     11609     11605     11603     11606     11607
     11605     11603     11606     11608     11605     11603     11606     11609
     11607     11606     11609     11610     11607     11606     11609     11611
     11607     11606     11609     11612     11608     11606     11609     11610
     11608     11606     11609     11611     11608     11606     11609     11612
     11613     11616     11619     11620     11613     11616     11619     11621
     11613     11616     11619     11622     11614     11613     11616     11617
     11614     11613     11616     11618     11614     11613     11616     11619
     11615     11613     11616     11617     11615     11613     11616     11618
     11615     11613     11616     11619     11616     11619     11622     11623
     11616     11619     11622     11624     11616     11619     11622     11625
     11617     11616     11619     11620     11617     11616     11619     11621
     11617     11616     11619     11622     11618     11616     11619     11620
     11618     11616     11619     11621     11618     11616     11619     11622
     11619     11622     11625     11626     11619     11622     11625     11627
     11619     11622     11625     11628     11620     11619     11622     11623
     11620     11619     11622     11624     11620     11619     11622     11625
     11621     11619     11622     11623     11621     11619     11622     11624
     11621     11619     11622     11625     11622     11625     11628     11629
     11622     11625     11628     11630     11622     11625     11628     11631
     11623     11622     11625     11626     11623     11622     11625     11627
     11623     11622     11625     11628     11624     11622     11625     11626
     11624     11622     11625     11627     11624     11622     11625     11628
     11625     11628     11631     11632     11625     11628     11631     11633
     11625     11628     11631     11634     11626     11625     11628     11629
     11626     11625     11628     11630     11626     11625     11628     11631
     11627     11625     11628     11629     11627     11625     11628     11630
     11627     11625     11628     11631     11628     11631     11634     11635
     11628     11631     11634     11636     11628     11631     11634     11637
     11629     11628     11631     11632     11629     11628     11631     11633
     11629     11628     11631     11634     11630     11628     11631     11632
     11630     11628     11631     11633     11630     11628     11631     11634
     11631     11634     11637     11638     11631     11634     11637     11639
     11631     11634     11637     11640     11632     11631     11634     11635
     11632     11631     11634     11636     11632     11631     11634     11637
     11633     11631     11634     11635     11633     11631     11634     11636
     11633     11631     11634     11637     11634     11637     11640     11641
     11634     11637     11640     11642     11634     11637     11640     11643
     11635     11634     11637     11638     11635     11634     11637     11639
     11635     11634     11637     11640     11636     11634     11637     11638
     11636     11634     11637     11639     11636     11634     11637     11640
     11637     11640     11643     11644     11637     11640     11643     11645
     11637     11640     11643     11646     11638     11637     11640     11641
     11638     11637     11640     11642     11638     11637     11640     11643
     11639     11637     11640     11641     11639     11637     11640     11642
     11639     11637     11640     11643     11640     11643     11646     11647
     11640     11643     11646     11648     11640     11643     11646     11649
     11641     11640     11643     11644     11641     11640     11643     11645
     11641     11640     11643     11646     11642     11640     11643     11644
     11642     11640     11643     11645     11642     11640     11643     11646
     11643     11646     11649     11650     11643     11646     11649     11651
     11643     11646     11649     11652     11644     11643     11646     11647
     11644     11643     11646     11648     11644     11643     11646     11649
     11645     11643     11646     11647     11645     11643     11646     11648
     11645     11643     11646     11649     11646     11649     11652     11653
     11646     11649     11652     11654     11646     11649     11652     11655
     11647     11646     11649     11650     11647     11646     11649     11651
     11647     11646     11649     11652     11648     11646     11649     11650
     11648     11646     11649     11651     11648     11646     11649     11652
     11649     11652     11655     11656     11649     11652     11655     11657
     11649     11652     11655     11658     11650     11649     11652     11653
     11650     11649     11652     11654     11650     11649     11652     11655
     11651     11649     11652     11653     11651     11649     11652     11654
     11651     11649     11652     11655     11652     11655     11658     11659
     11652     11655     11658     11660     11652     11655     11658     11661
     11653     11652     11655     11656     11653     11652     11655     11657
     11653     11652     11655     11658     11654     11652     11655     11656
     11654     11652     11655     11657     11654     11652     11655     11658
     11656     11655     11658     11659     11656     11655     11658     11660
     11656     11655     11658     11661     11657     11655     11658     11659
     11657     11655     11658     11660     11657     11655     11658     11661
     11662     11675     11678     11679     11662     11675     11678     11680
     11662     11675     11678     11685     11663     11662     11667     11668
     11663     11662     11667     11669     11663     11662     11667     11670
     11663     11662     11671     11672     11663     11662     11671     11673
     11663     11662     11671     11674     11663     11662     11675     11676
     11663     11662     11675     11677     11663     11662     11675     11678
     11664     11663     11662     11667     11664     11663     11662     11671
     11664     11663     11662     11675     11665     11663     11662     11667
     11665     11663     11662     11671     11665     11663     11662     11675
     11666     11663     11662     11667     11666     11663     11662     11671
     11666     11663     11662     11675     11667     11662     11671     11672
     11667     11662     11671     11673     11667     11662     11671     11674
     11667     11662     11675     11676     11667     11662     11675     11677
     11667     11662     11675     11678     11668     11667     11662     11671
     11668     11667     11662     11675     11669     11667     11662     11671
     11669     11667     11662     11675     11670     11667     11662     11671
     11670     11667     11662     11675     11671     11662     11675     11676
     11671     11662     11675     11677     11671     11662     11675     11678
     11672     11671     11662     11675     11673     11671     11662     11675
     11674     11671     11662     11675     11675     11678     11685     11681
     11676     11675     11678     11679     11676     11675     11678     11680
     11676     11675     11678     11685     11677     11675     11678     11679
     11677     11675     11678     11680     11677     11675     11678     11685
     11678     11685     11681     11682     11678     11685     11681     11683
     11678     11685     11681     11684     11679     11678     11685     11681
     11680     11678     11685     11681     11681     11684     11686     11687
     11681     11684     11686     11688     11681     11684     11686     11691
     11682     11681     11684     11686     11683     11681     11684     11686
     11684     11686     11691     11689     11684     11686     11691     11692
     11684     11686     11691     11693     11685     11681     11684     11686
     11686     11691     11689     11690     11686     11691     11689     11741
     11686     11691     11693     11694     11686     11691     11693     11695
     11686     11691     11693     11697     11687     11686     11691     11689
     11687     11686     11691     11692     11687     11686     11691     11693
     11688     11686     11691     11689     11688     11686     11691     11692
     11688     11686     11691     11693     11689     11691     11693     11694
     11689     11691     11693     11695     11689     11691     11693     11697
     11689     11741     11743     11744     11689     11741     11743     11745
     11689     11741     11743     11746     11690     11689     11691     11692
     11690     11689     11691     11693     11690     11689     11741     11742
     11690     11689     11741     11743     11691     11689     11741     11742
     11691     11689     11741     11743     11691     11693     11695     11696
     11691     11693     11697     11698     11691     11693     11697     11699
     11692     11691     11689     11741     11692     11691     11693     11694
     11692     11691     11693     11695     11692     11691     11693     11697
     11693     11691     11689     11741     11693     11697     11699     11700
     11693     11697     11699     11701     11694     11693     11695     11696
     11694     11693     11697     11698     11694     11693     11697     11699
     11695     11693     11697     11698     11695     11693     11697     11699
     11696     11695     11693     11697     11697     11699     11701     11702
     11697     11699     11701     11703     11697     11699     11701     11704
     11698     11697     11699     11700     11698     11697     11699     11701
     11699     11701     11704     11705     11699     11701     11704     11706
     11699     11701     11704     11707     11700     11699     11701     11702
     11700     11699     11701     11703     11700     11699     11701     11704
     11701     11704     11707     11708     11701     11704     11707     11709
     11701     11704     11707     11710     11702     11701     11704     11705
     11702     11701     11704     11706     11702     11701     11704     11707
     11703     11701     11704     11705     11703     11701     11704     11706
     11703     11701     11704     11707     11704     11707     11710     11711
     11704     11707     11710     11712     11704     11707     11710     11713
     11705     11704     11707     11708     11705     11704     11707     11709
     11705     11704     11707     11710     11706     11704     11707     11708
     11706     11704     11707     11709     11706     11704     11707     11710
     11707     11710     11713     11714     11707     11710     11713     11715
     11707     11710     11713     11716     11708     11707     11710     11711
     11708     11707     11710     11712     11708     11707     11710     11713
     11709     11707     11710     11711     11709     11707     11710     11712
     11709     11707     11710     11713     11710     11713     11716     11717
     11710     11713     11716     11718     11710     11713     11716     11719
     11711     11710     11713     11714     11711     11710     11713     11715
     11711     11710     11713     11716     11712     11710     11713     11714
     11712     11710     11713     11715     11712     11710     11713     11716
     11713     11716     11719     11720     11713     11716     11719     11721
     11713     11716     11719     11722     11714     11713     11716     11717
     11714     11713     11716     11718     11714     11713     11716     11719
     11715     11713     11716     11717     11715     11713     11716     11718
     11715     11713     11716     11719     11716     11719     11722     11723
     11716     11719     11722     11724     11716     11719     11722     11725
     11717     11716     11719     11720     11717     11716     11719     11721
     11717     11716     11719     11722     11718     11716     11719     11720
     11718     11716     11719     11721     11718     11716     11719     11722
     11719     11722     11725     11726     11719     11722     11725     11727
     11719     11722     11725     11728     11720     11719     11722     11723
     11720     11719     11722     11724     11720     11719     11722     11725
     11721     11719     11722     11723     11721     11719     11722     11724
     11721     11719     11722     11725     11722     11725     11728     11729
     11722     11725     11728     11730     11722     11725     11728     11731
     11723     11722     11725     11726     11723     11722     11725     11727
     11723     11722     11725     11728     11724     11722     11725     11726
     11724     11722     11725     11727     11724     11722     11725     11728
     11725     11728     11731     11732     11725     11728     11731     11733
     11725     11728     11731     11734     11726     11725     11728     11729
     11726     11725     11728     11730     11726     11725     11728     11731
     11727     11725     11728     11729     11727     11725     11728     11730
     11727     11725     11728     11731     11728     11731     11734     11735
     11728     11731     11734     11736     11728     11731     11734     11737
     11729     11728     11731     11732     11729     11728     11731     11733
     11729     11728     11731     11734     11730     11728     11731     11732
     11730     11728     11731     11733     11730     11728     11731     11734
     11731     11734     11737     11738     11731     11734     11737     11739
     11731     11734     11737     11740     11732     11731     11734     11735
     11732     11731     11734     11736     11732     11731     11734     11737
     11733     11731     11734     11735     11733     11731     11734     11736
     11733     11731     11734     11737     11735     11734     11737     11738
     11735     11734     11737     11739     11735     11734     11737     11740
     11736     11734     11737     11738     11736     11734     11737     11739
     11736     11734     11737     11740     11741     11743     11746     11747
     11741     11743     11746     11748     11741     11743     11746     11749
     11742     11741     11743     11744     11742     11741     11743     11745
     11742     11741     11743     11746     11743     11746     11749     11750
     11743     11746     11749     11751     11743     11746     11749     11752
     11744     11743     11746     11747     11744     11743     11746     11748
     11744     11743     11746     11749     11745     11743     11746     11747
     11745     11743     11746     11748     11745     11743     11746     11749
     11746     11749     11752     11753     11746     11749     11752     11754
     11746     11749     11752     11755     11747     11746     11749     11750
     11747     11746     11749     11751     11747     11746     11749     11752
     11748     11746     11749     11750     11748     11746     11749     11751
     11748     11746     11749     11752     11749     11752     11755     11756
     11749     11752     11755     11757     11749     11752     11755     11758
     11750     11749     11752     11753     11750     11749     11752     11754
     11750     11749     11752     11755     11751     11749     11752     11753
     11751     11749     11752     11754     11751     11749     11752     11755
     11752     11755     11758     11759     11752     11755     11758     11760
     11752     11755     11758     11761     11753     11752     11755     11756
     11753     11752     11755     11757     11753     11752     11755     11758
     11754     11752     11755     11756     11754     11752     11755     11757
     11754     11752     11755     11758     11755     11758     11761     11762
     11755     11758     11761     11763     11755     11758     11761     11764
     11756     11755     11758     11759     11756     11755     11758     11760
     11756     11755     11758     11761     11757     11755     11758     11759
     11757     11755     11758     11760     11757     11755     11758     11761
     11758     11761     11764     11765     11758     11761     11764     11766
     11759     11758     11761     11762     11759     11758     11761     11763
     11759     11758     11761     11764     11760     11758     11761     11762
     11760     11758     11761     11763     11760     11758     11761     11764
     11761     11764     11766     11767     11761     11764     11766     11768
     11762     11761     11764     11765     11762     11761     11764     11766
     11763     11761     11764     11765     11763     11761     11764     11766
     11764     11766     11768     11769     11764     11766     11768     11770
     11764     11766     11768     11771     11765     11764     11766     11767
     11765     11764     11766     11768     11766     11768     11771     11772
     11766     11768     11771     11773     11766     11768     11771     11774
     11767     11766     11768     11769     11767     11766     11768     11770
     11767     11766     11768     11771     11768     11771     11774     11775
     11768     11771     11774     11776     11768     11771     11774     11777
     11769     11768     11771     11772     11769     11768     11771     11773
     11769     11768     11771     11774     11770     11768     11771     11772
     11770     11768     11771     11773     11770     11768     11771     11774
     11771     11774     11777     11778     11771     11774     11777     11779
     11771     11774     11777     11780     11772     11771     11774     11775
     11772     11771     11774     11776     11772     11771     11774     11777
     11773     11771     11774     11775     11773     11771     11774     11776
     11773     11771     11774     11777     11774     11777     11780     11781
     11774     11777     11780     11782     11774     11777     11780     11783
     11775     11774     11777     11778     11775     11774     11777     11779
     11775     11774     11777     11780     11776     11774     11777     11778
     11776     11774     11777     11779     11776     11774     11777     11780
     11777     11780     11783     11784     11777     11780     11783     11785
     11777     11780     11783     11786     11778     11777     11780     11781
     11778     11777     11780     11782     11778     11777     11780     11783
     11779     11777     11780     11781     11779     11777     11780     11782
     11779     11777     11780     11783     11780     11783     11786     11787
     11780     11783     11786     11788     11780     11783     11786     11789
     11781     11780     11783     11784     11781     11780     11783     11785
     11781     11780     11783     11786     11782     11780     11783     11784
     11782     11780     11783     11785     11782     11780     11783     11786
     11783     11786     11789     11790     11783     11786     11789     11791
     11783     11786     11789     11792     11784     11783     11786     11787
     11784     11783     11786     11788     11784     11783     11786     11789
     11785     11783     11786     11787     11785     11783     11786     11788
     11785     11783     11786     11789     11787     11786     11789     11790
     11787     11786     11789     11791     11787     11786     11789     11792
     11788     11786     11789     11790     11788     11786     11789     11791
     11788     11786     11789     11792     11793     11797     11799     11800
     11793     11797     11799     11801     11793     11797     11802     11803
     11793     11797     11802     11804     11793     11797     11802     11808
     11794     11793     11797     11798     11794     11793     11797     11799
     11794     11793     11797     11802     11795     11793     11797     11798
     11795     11793     11797     11799     11795     11793     11797     11802
     11796     11793     11797     11798     11796     11793     11797     11799
     11796     11793     11797     11802     11797     11802     11808     11805
     11798     11797     11799     11800     11798     11797     11799     11801
     11798     11797     11802     11803     11798     11797     11802     11804
     11798     11797     11802     11808     11799     11797     11802     11803
     11799     11797     11802     11804     11799     11797     11802     11808
     11800     11799     11797     11802     11801     11799     11797     11802
     11802     11808     11805     11806     11802     11808     11805     11807
     11802     11808     11805     11809     11803     11802     11808     11805
     11804     11802     11808     11805     11805     11809     11810     11811
     11805     11809     11810     11812     11805     11809     11810     11813
     11806     11805     11809     11810     11807     11805     11809     11810
     11808     11805     11809     11810     11809     11810     11813     11814
     11809     11810     11813     11815     11809     11810     11813     11821
     11810     11813     11815     11816     11810     11813     11821     11822
     11810     11813     11821     11823     11810     11813     11821     11824
     11811     11810     11813     11814     11811     11810     11813     11815
     11811     11810     11813     11821     11812     11810     11813     11814
     11812     11810     11813     11815     11812     11810     11813     11821
     11813     11815     11816     11817     11813     11815     11816     11818
     11813     11821     11824     11825     11814     11813     11815     11816
     11814     11813     11821     11822     11814     11813     11821     11823
     11814     11813     11821     11824     11815     11813     11821     11822
     11815     11813     11821     11823     11815     11813     11821     11824
     11815     11816     11818     11819     11815     11816     11818     11820
     11815     11816     11818     11830     11816     11815     11813     11821
     11816     11818     11830     11831     11816     11818     11830     11832
     11816     11818     11830     11833     11817     11816     11818     11819
     11817     11816     11818     11820     11817     11816     11818     11830
     11818     11830     11833     11834     11818     11830     11833     11835
     11818     11830     11833     11836     11819     11818     11830     11831
     11819     11818     11830     11832     11819     11818     11830     11833
     11820     11818     11830     11831     11820     11818     11830     11832
     11820     11818     11830     11833     11821     11824     11825     11826
     11821     11824     11825     11827     11822     11821     11824     11825
     11823     11821     11824     11825     11824     11825     11827     11828
     11824     11825     11827     11829     11824     11825     11827     11877
     11825     11827     11877     11878     11825     11827     11877     11879
     11825     11827     11877     11880     11826     11825     11827     11828
     11826     11825     11827     11829     11826     11825     11827     11877
     11827     11877     11880     11881     11827     11877     11880     11882
     11827     11877     11880     11883     11828     11827     11877     11878
     11828     11827     11877     11879     11828     11827     11877     11880
     11829     11827     11877     11878     11829     11827     11877     11879
     11829     11827     11877     11880     11830     11833     11836     11837
     11830     11833     11836     11838     11831     11830     11833     11834
     11831     11830     11833     11835     11831     11830     11833     11836
     11832     11830     11833     11834     11832     11830     11833     11835
     11832     11830     11833     11836     11833     11836     11838     11839
     11833     11836     11838     11840     11834     11833     11836     11837
     11834     11833     11836     11838     11835     11833     11836     11837
     11835     11833     11836     11838     11836     11838     11840     11841
     11836     11838     11840     11842     11836     11838     11840     11843
     11837     11836     11838     11839     11837     11836     11838     11840
     11838     11840     11843     11844     11838     11840     11843     11845
     11839     11838     11840     11841     11839     11838     11840     11842
     11839     11838     11840     11843     11840     11843     11845     11846
     11840     11843     11845     11847     11841     11840     11843     11844
     11841     11840     11843     11845     11842     11840     11843     11844
     11842     11840     11843     11845     11843     11845     11847     11848
     11843     11845     11847     11849     11843     11845     11847     11850
     11844     11843     11845     11846     11844     11843     11845     11847
     11845     11847     11850     11851     11845     11847     11850     11852
     11846     11845     11847     11848     11846     11845     11847     11849
     11846     11845     11847     11850     11847     11850     11852     11853
     11847     11850     11852     11854     11848     11847     11850     11851
     11848     11847     11850     11852     11849     11847     11850     11851
     11849     11847     11850     11852     11850     11852     11854     11855
     11850     11852     11854     11856     11850     11852     11854     11857
     11851     11850     11852     11853     11851     11850     11852     11854
     11852     11854     11857     11858     11852     11854     11857     11859
     11853     11852     11854     11855     11853     11852     11854     11856
     11853     11852     11854     11857     11854     11857     11859     11860
     11854     11857     11859     11861     11855     11854     11857     11858
     11855     11854     11857     11859     11856     11854     11857     11858
     11856     11854     11857     11859     11857     11859     11861     11862
     11857     11859     11861     11863     11857     11859     11861     11864
     11858     11857     11859     11860     11858     11857     11859     11861
     11859     11861     11864     11865     11859     11861     11864     11866
     11859     11861     11864     11867     11860     11859     11861     11862
     11860     11859     11861     11863     11860     11859     11861     11864
     11861     11864     11867     11868     11861     11864     11867     11869
     11861     11864     11867     11870     11862     11861     11864     11865
     11862     11861     11864     11866     11862     11861     11864     11867
     11863     11861     11864     11865     11863     11861     11864     11866
     11863     11861     11864     11867     11864     11867     11870     11871
     11864     11867     11870     11872     11864     11867     11870     11873
     11865     11864     11867     11868     11865     11864     11867     11869
     11865     11864     11867     11870     11866     11864     11867     11868
     11866     11864     11867     11869     11866     11864     11867     11870
     11867     11870     11873     11874     11867     11870     11873     11875
     11867     11870     11873     11876     11868     11867     11870     11871
     11868     11867     11870     11872     11868     11867     11870     11873
     11869     11867     11870     11871     11869     11867     11870     11872
     11869     11867     11870     11873     11871     11870     11873     11874
     11871     11870     11873     11875     11871     11870     11873     11876
     11872     11870     11873     11874     11872     11870     11873     11875
     11872     11870     11873     11876     11877     11880     11883     11884
     11877     11880     11883     11885     11877     11880     11883     11886
     11878     11877     11880     11881     11878     11877     11880     11882
     11878     11877     11880     11883     11879     11877     11880     11881
     11879     11877     11880     11882     11879     11877     11880     11883
     11880     11883     11886     11887     11880     11883     11886     11888
     11880     11883     11886     11889     11881     11880     11883     11884
     11881     11880     11883     11885     11881     11880     11883     11886
     11882     11880     11883     11884     11882     11880     11883     11885
     11882     11880     11883     11886     11883     11886     11889     11890
     11883     11886     11889     11891     11883     11886     11889     11892
     11884     11883     11886     11887     11884     11883     11886     11888
     11884     11883     11886     11889     11885     11883     11886     11887
     11885     11883     11886     11888     11885     11883     11886     11889
     11886     11889     11892     11893     11886     11889     11892     11894
     11886     11889     11892     11895     11887     11886     11889     11890
     11887     11886     11889     11891     11887     11886     11889     11892
     11888     11886     11889     11890     11888     11886     11889     11891
     11888     11886     11889     11892     11889     11892     11895     11896
     11889     11892     11895     11897     11889     11892     11895     11898
     11890     11889     11892     11893     11890     11889     11892     11894
     11890     11889     11892     11895     11891     11889     11892     11893
     11891     11889     11892     11894     11891     11889     11892     11895
     11892     11895     11898     11899     11892     11895     11898     11900
     11892     11895     11898     11901     11893     11892     11895     11896
     11893     11892     11895     11897     11893     11892     11895     11898
     11894     11892     11895     11896     11894     11892     11895     11897
     11894     11892     11895     11898     11895     11898     11901     11902
     11895     11898     11901     11903     11895     11898     11901     11904
     11896     11895     11898     11899     11896     11895     11898     11900
     11896     11895     11898     11901     11897     11895     11898     11899
     11897     11895     11898     11900     11897     11895     11898     11901
     11898     11901     11904     11905     11898     11901     11904     11906
     11898     11901     11904     11907     11899     11898     11901     11902
     11899     11898     11901     11903     11899     11898     11901     11904
     11900     11898     11901     11902     11900     11898     11901     11903
     11900     11898     11901     11904     11901     11904     11907     11908
     11901     11904     11907     11909     11901     11904     11907     11910
     11902     11901     11904     11905     11902     11901     11904     11906
     11902     11901     11904     11907     11903     11901     11904     11905
     11903     11901     11904     11906     11903     11901     11904     11907
     11904     11907     11910     11911     11904     11907     11910     11912
     11904     11907     11910     11913     11905     11904     11907     11908
     11905     11904     11907     11909     11905     11904     11907     11910
     11906     11904     11907     11908     11906     11904     11907     11909
     11906     11904     11907     11910     11907     11910     11913     11914
     11907     11910     11913     11915     11907     11910     11913     11916
     11908     11907     11910     11911     11908     11907     11910     11912
     11908     11907     11910     11913     11909     11907     11910     11911
     11909     11907     11910     11912     11909     11907     11910     11913
     11910     11913     11916     11917     11910     11913     11916     11918
     11910     11913     11916     11919     11911     11910     11913     11914
     11911     11910     11913     11915     11911     11910     11913     11916
     11912     11910     11913     11914     11912     11910     11913     11915
     11912     11910     11913     11916     11913     11916     11919     11920
     11913     11916     11919     11921     11913     11916     11919     11922
     11914     11913     11916     11917     11914     11913     11916     11918
     11914     11913     11916     11919     11915     11913     11916     11917
     11915     11913     11916     11918     11915     11913     11916     11919
     11916     11919     11922     11923     11916     11919     11922     11924
     11916     11919     11922     11925     11917     11916     11919     11920
     11917     11916     11919     11921     11917     11916     11919     11922
     11918     11916     11919     11920     11918     11916     11919     11921
     11918     11916     11919     11922     11920     11919     11922     11923
     11920     11919     11922     11924     11920     11919     11922     11925
     11921     11919     11922     11923     11921     11919     11922     11924
     11921     11919     11922     11925     11926     11927     11942     11943
     11926     11927     11942     11944     11926     11927     11942     11948
     11927     11926     11930     11931     11927     11926     11930     11932
     11927     11926     11930     11933     11927     11926     11934     11935
     11927     11926     11934     11936     11927     11926     11934     11937
     11927     11926     11938     11939     11927     11926     11938     11940
     11927     11926     11938     11941     11927     11942     11948     11945
     11928     11927     11926     11930     11928     11927     11926     11934
     11928     11927     11926     11938     11928     11927     11942     11943
     11928     11927     11942     11944     11928     11927     11942     11948
     11929     11927     11926     11930     11929     11927     11926     11934
     11929     11927     11926     11938     11929     11927     11942     11943
     11929     11927     11942     11944     11929     11927     11942     11948
     11930     11926     11927     11942     11930     11926     11934     11935
     11930     11926     11934     11936     11930     11926     11934     11937
     11930     11926     11938     11939     11930     11926     11938     11940
     11930     11926     11938     11941     11931     11930     11926     11934
     11931     11930     11926     11938     11932     11930     11926     11934
     11932     11930     11926     11938     11933     11930     11926     11934
     11933     11930     11926     11938     11934     11926     11927     11942
     11934     11926     11938     11939     11934     11926     11938     11940
     11934     11926     11938     11941     11935     11934     11926     11938
     11936     11934     11926     11938     11937     11934     11926     11938
     11938     11926     11927     11942     11942     11948     11945     11946
     11942     11948     11945     11947     11942     11948     11945     11949
     11943     11942     11948     11945     11944     11942     11948     11945
     11945     11949     11950     11951     11945     11949     11950     11952
     11945     11949     11950     11953     11946     11945     11949     11950
     11947     11945     11949     11950     11948     11945     11949     11950
     11949     11950     11953     11954     11949     11950     11953     11955
     11949     11950     11953     11961     11950     11953     11955     11956
     11950     11953     11961     11962     11950     11953     11961     11963
     11950     11953     11961     11964     11951     11950     11953     11954
     11951     11950     11953     11955     11951     11950     11953     11961
     11952     11950     11953     11954     11952     11950     11953     11955
     11952     11950     11953     11961     11953     11955     11956     11957
     11953     11955     11956     11958     11953     11961     11964     11965
     11954     11953     11955     11956     11954     11953     11961     11962
     11954     11953     11961     11963     11954     11953     11961     11964
     11955     11953     11961     11962     11955     11953     11961     11963
     11955     11953     11961     11964     11955     11956     11958     11959
     11955     11956     11958     11960     11955     11956     11958     11970
     11956     11955     11953     11961     11956     11958     11970     11971
     11956     11958     11970     11972     11956     11958     11970     11973
     11957     11956     11958     11959     11957     11956     11958     11960
     11957     11956     11958     11970     11958     11970     11973     11974
     11958     11970     11973     11975     11958     11970     11973     11976
     11959     11958     11970     11971     11959     11958     11970     11972
     11959     11958     11970     11973     11960     11958     11970     11971
     11960     11958     11970     11972     11960     11958     11970     11973
     11961     11964     11965     11966     11961     11964     11965     11967
     11962     11961     11964     11965     11963     11961     11964     11965
     11964     11965     11967     11968     11964     11965     11967     11969
     11964     11965     11967     12017     11965     11967     12017     12018
     11965     11967     12017     12019     11965     11967     12017     12020
     11966     11965     11967     11968     11966     11965     11967     11969
     11966     11965     11967     12017     11967     12017     12020     12021
     11967     12017     12020     12022     11967     12017     12020     12023
     11968     11967     12017     12018     11968     11967     12017     12019
     11968     11967     12017     12020     11969     11967     12017     12018
     11969     11967     12017     12019     11969     11967     12017     12020
     11970     11973     11976     11977     11970     11973     11976     11978
     11970     11973     11976     11979     11971     11970     11973     11974
     11971     11970     11973     11975     11971     11970     11973     11976
     11972     11970     11973     11974     11972     11970     11973     11975
     11972     11970     11973     11976     11973     11976     11979     11980
     11973     11976     11979     11981     11973     11976     11979     11982
     11974     11973     11976     11977     11974     11973     11976     11978
     11974     11973     11976     11979     11975     11973     11976     11977
     11975     11973     11976     11978     11975     11973     11976     11979
     11976     11979     11982     11983     11976     11979     11982     11984
     11976     11979     11982     11985     11977     11976     11979     11980
     11977     11976     11979     11981     11977     11976     11979     11982
     11978     11976     11979     11980     11978     11976     11979     11981
     11978     11976     11979     11982     11979     11982     11985     11986
     11979     11982     11985     11987     11979     11982     11985     11988
     11980     11979     11982     11983     11980     11979     11982     11984
     11980     11979     11982     11985     11981     11979     11982     11983
     11981     11979     11982     11984     11981     11979     11982     11985
     11982     11985     11988     11989     11982     11985     11988     11990
     11983     11982     11985     11986     11983     11982     11985     11987
     11983     11982     11985     11988     11984     11982     11985     11986
     11984     11982     11985     11987     11984     11982     11985     11988
     11985     11988     11990     11991     11985     11988     11990     11992
     11986     11985     11988     11989     11986     11985     11988     11990
     11987     11985     11988     11989     11987     11985     11988     11990
     11988     11990     11992     11993     11988     11990     11992     11994
     11988     11990     11992     11995     11989     11988     11990     11991
     11989     11988     11990     11992     11990     11992     11995     11996
     11990     11992     11995     11997     11990     11992     11995     11998
     11991     11990     11992     11993     11991     11990     11992     11994
     11991     11990     11992     11995     11992     11995     11998     11999
     11992     11995     11998     12000     11992     11995     11998     12001
     11993     11992     11995     11996     11993     11992     11995     11997
     11993     11992     11995     11998     11994     11992     11995     11996
     11994     11992     11995     11997     11994     11992     11995     11998
     11995     11998     12001     12002     11995     11998     12001     12003
     11995     11998     12001     12004     11996     11995     11998     11999
     11996     11995     11998     12000     11996     11995     11998     12001
     11997     11995     11998     11999     11997     11995     11998     12000
     11997     11995     11998     12001     11998     12001     12004     12005
     11998     12001     12004     12006     11998     12001     12004     12007
     11999     11998     12001     12002     11999     11998     12001     12003
     11999     11998     12001     12004     12000     11998     12001     12002
     12000     11998     12001     12003     12000     11998     12001     12004
     12001     12004     12007     12008     12001     12004     12007     12009
     12001     12004     12007     12010     12002     12001     12004     12005
     12002     12001     12004     12006     12002     12001     12004     12007
     12003     12001     12004     12005     12003     12001     12004     12006
     12003     12001     12004     12007     12004     12007     12010     12011
     12004     12007     12010     12012     12004     12007     12010     12013
     12005     12004     12007     12008     12005     12004     12007     12009
     12005     12004     12007     12010     12006     12004     12007     12008
     12006     12004     12007     12009     12006     12004     12007     12010
     12007     12010     12013     12014     12007     12010     12013     12015
     12007     12010     12013     12016     12008     12007     12010     12011
     12008     12007     12010     12012     12008     12007     12010     12013
     12009     12007     12010     12011     12009     12007     12010     12012
     12009     12007     12010     12013     12011     12010     12013     12014
     12011     12010     12013     12015     12011     12010     12013     12016
     12012     12010     12013     12014     12012     12010     12013     12015
     12012     12010     12013     12016     12017     12020     12023     12024
     12017     12020     12023     12025     12017     12020     12023     12026
     12018     12017     12020     12021     12018     12017     12020     12022
     12018     12017     12020     12023     12019     12017     12020     12021
     12019     12017     12020     12022     12019     12017     12020     12023
     12020     12023     12026     12027     12020     12023     12026     12028
     12020     12023     12026     12029     12021     12020     12023     12024
     12021     12020     12023     12025     12021     12020     12023     12026
     12022     12020     12023     12024     12022     12020     12023     12025
     12022     12020     12023     12026     12023     12026     12029     12030
     12023     12026     12029     12031     12023     12026     12029     12032
     12024     12023     12026     12027     12024     12023     12026     12028
     12024     12023     12026     12029     12025     12023     12026     12027
     12025     12023     12026     12028     12025     12023     12026     12029
     12026     12029     12032     12033     12026     12029     12032     12034
     12026     12029     12032     12035     12027     12026     12029     12030
     12027     12026     12029     12031     12027     12026     12029     12032
     12028     12026     12029     12030     12028     12026     12029     12031
     12028     12026     12029     12032     12029     12032     12035     12036
     12029     12032     12035     12037     12029     12032     12035     12038
     12030     12029     12032     12033     12030     12029     12032     12034
     12030     12029     12032     12035     12031     12029     12032     12033
     12031     12029     12032     12034     12031     12029     12032     12035
     12032     12035     12038     12039     12032     12035     12038     12040
     12032     12035     12038     12041     12033     12032     12035     12036
     12033     12032     12035     12037     12033     12032     12035     12038
     12034     12032     12035     12036     12034     12032     12035     12037
     12034     12032     12035     12038     12035     12038     12041     12042
     12035     12038     12041     12043     12035     12038     12041     12044
     12036     12035     12038     12039     12036     12035     12038     12040
     12036     12035     12038     12041     12037     12035     12038     12039
     12037     12035     12038     12040     12037     12035     12038     12041
     12038     12041     12044     12045     12038     12041     12044     12046
     12038     12041     12044     12047     12039     12038     12041     12042
     12039     12038     12041     12043     12039     12038     12041     12044
     12040     12038     12041     12042     12040     12038     12041     12043
     12040     12038     12041     12044     12041     12044     12047     12048
     12041     12044     12047     12049     12041     12044     12047     12050
     12042     12041     12044     12045     12042     12041     12044     12046
     12042     12041     12044     12047     12043     12041     12044     12045
     12043     12041     12044     12046     12043     12041     12044     12047
     12044     12047     12050     12051     12044     12047     12050     12052
     12044     12047     12050     12053     12045     12044     12047     12048
     12045     12044     12047     12049     12045     12044     12047     12050
     12046     12044     12047     12048     12046     12044     12047     12049
     12046     12044     12047     12050     12047     12050     12053     12054
     12047     12050     12053     12055     12047     12050     12053     12056
     12048     12047     12050     12051     12048     12047     12050     12052
     12048     12047     12050     12053     12049     12047     12050     12051
     12049     12047     12050     12052     12049     12047     12050     12053
     12050     12053     12056     12057     12050     12053     12056     12058
     12050     12053     12056     12059     12051     12050     12053     12054
     12051     12050     12053     12055     12051     12050     12053     12056
     12052     12050     12053     12054     12052     12050     12053     12055
     12052     12050     12053     12056     12054     12053     12056     12057
     12054     12053     12056     12058     12054     12053     12056     12059
     12055     12053     12056     12057     12055     12053     12056     12058
     12055     12053     12056     12059     12060     12064     12067     12068
     12060     12064     12067     12069     12060     12064     12067     12073
     12061     12060     12064     12065     12061     12060     12064     12066
     12061     12060     12064     12067     12062     12060     12064     12065
     12062     12060     12064     12066     12062     12060     12064     12067
     12063     12060     12064     12065     12063     12060     12064     12066
     12063     12060     12064     12067     12064     12067     12073     12070
     12065     12064     12067     12068     12065     12064     12067     12069
     12065     12064     12067     12073     12066     12064     12067     12068
     12066     12064     12067     12069     12066     12064     12067     12073
     12067     12073     12070     12071     12067     12073     12070     12072
     12067     12073     12070     12074     12068     12067     12073     12070
     12069     12067     12073     12070     12070     12074     12075     12076
     12070     12074     12075     12077     12070     12074     12075     12078
     12071     12070     12074     12075     12072     12070     12074     12075
     12073     12070     12074     12075     12074     12075     12078     12079
     12074     12075     12078     12080     12074     12075     12078     12086
     12075     12078     12080     12081     12075     12078     12086     12087
     12075     12078     12086     12088     12075     12078     12086     12089
     12076     12075     12078     12079     12076     12075     12078     12080
     12076     12075     12078     12086     12077     12075     12078     12079
     12077     12075     12078     12080     12077     12075     12078     12086
     12078     12080     12081     12082     12078     12080     12081     12083
     12078     12086     12089     12090     12079     12078     12080     12081
     12079     12078     12086     12087     12079     12078     12086     12088
     12079     12078     12086     12089     12080     12078     12086     12087
     12080     12078     12086     12088     12080     12078     12086     12089
     12080     12081     12083     12084     12080     12081     12083     12085
     12080     12081     12083     12095     12081     12080     12078     12086
     12081     12083     12095     12096     12081     12083     12095     12097
     12081     12083     12095     12098     12082     12081     12083     12084
     12082     12081     12083     12085     12082     12081     12083     12095
     12083     12095     12098     12099     12083     12095     12098     12100
     12083     12095     12098     12101     12084     12083     12095     12096
     12084     12083     12095     12097     12084     12083     12095     12098
     12085     12083     12095     12096     12085     12083     12095     12097
     12085     12083     12095     12098     12086     12089     12090     12091
     12086     12089     12090     12092     12087     12086     12089     12090
     12088     12086     12089     12090     12089     12090     12092     12093
     12089     12090     12092     12094     12089     12090     12092     12142
     12090     12092     12142     12143     12090     12092     12142     12144
     12090     12092     12142     12145     12091     12090     12092     12093
     12091     12090     12092     12094     12091     12090     12092     12142
     12092     12142     12145     12146     12092     12142     12145     12147
     12092     12142     12145     12148     12093     12092     12142     12143
     12093     12092     12142     12144     12093     12092     12142     12145
     12094     12092     12142     12143     12094     12092     12142     12144
     12094     12092     12142     12145     12095     12098     12101     12102
     12095     12098     12101     12103     12096     12095     12098     12099
     12096     12095     12098     12100     12096     12095     12098     12101
     12097     12095     12098     12099     12097     12095     12098     12100
     12097     12095     12098     12101     12098     12101     12103     12104
     12098     12101     12103     12105     12099     12098     12101     12102
     12099     12098     12101     12103     12100     12098     12101     12102
     12100     12098     12101     12103     12101     12103     12105     12106
     12101     12103     12105     12107     12101     12103     12105     12108
     12102     12101     12103     12104     12102     12101     12103     12105
     12103     12105     12108     12109     12103     12105     12108     12110
     12104     12103     12105     12106     12104     12103     12105     12107
     12104     12103     12105     12108     12105     12108     12110     12111
     12105     12108     12110     12112     12106     12105     12108     12109
     12106     12105     12108     12110     12107     12105     12108     12109
     12107     12105     12108     12110     12108     12110     12112     12113
     12108     12110     12112     12114     12108     12110     12112     12115
     12109     12108     12110     12111     12109     12108     12110     12112
     12110     12112     12115     12116     12110     12112     12115     12117
     12111     12110     12112     12113     12111     12110     12112     12114
     12111     12110     12112     12115     12112     12115     12117     12118
     12112     12115     12117     12119     12113     12112     12115     12116
     12113     12112     12115     12117     12114     12112     12115     12116
     12114     12112     12115     12117     12115     12117     12119     12120
     12115     12117     12119     12121     12115     12117     12119     12122
     12116     12115     12117     12118     12116     12115     12117     12119
     12117     12119     12122     12123     12117     12119     12122     12124
     12118     12117     12119     12120     12118     12117     12119     12121
     12118     12117     12119     12122     12119     12122     12124     12125
     12119     12122     12124     12126     12120     12119     12122     12123
     12120     12119     12122     12124     12121     12119     12122     12123
     12121     12119     12122     12124     12122     12124     12126     12127
     12122     12124     12126     12128     12122     12124     12126     12129
     12123     12122     12124     12125     12123     12122     12124     12126
     12124     12126     12129     12130     12124     12126     12129     12131
     12124     12126     12129     12132     12125     12124     12126     12127
     12125     12124     12126     12128     12125     12124     12126     12129
     12126     12129     12132     12133     12126     12129     12132     12134
     12126     12129     12132     12135     12127     12126     12129     12130
     12127     12126     12129     12131     12127     12126     12129     12132
     12128     12126     12129     12130     12128     12126     12129     12131
     12128     12126     12129     12132     12129     12132     12135     12136
     12129     12132     12135     12137     12129     12132     12135     12138
     12130     12129     12132     12133     12130     12129     12132     12134
     12130     12129     12132     12135     12131     12129     12132     12133
     12131     12129     12132     12134     12131     12129     12132     12135
     12132     12135     12138     12139     12132     12135     12138     12140
     12132     12135     12138     12141     12133     12132     12135     12136
     12133     12132     12135     12137     12133     12132     12135     12138
     12134     12132     12135     12136     12134     12132     12135     12137
     12134     12132     12135     12138     12136     12135     12138     12139
     12136     12135     12138     12140     12136     12135     12138     12141
     12137     12135     12138     12139     12137     12135     12138     12140
     12137     12135     12138     12141     12142     12145     12148     12149
     12142     12145     12148     12150     12142     12145     12148     12151
     12143     12142     12145     12146     12143     12142     12145     12147
     12143     12142     12145     12148     12144     12142     12145     12146
     12144     12142     12145     12147     12144     12142     12145     12148
     12145     12148     12151     12152     12145     12148     12151     12153
     12145     12148     12151     12154     12146     12145     12148     12149
     12146     12145     12148     12150     12146     12145     12148     12151
     12147     12145     12148     12149     12147     12145     12148     12150
     12147     12145     12148     12151     12148     12151     12154     12155
     12148     12151     12154     12156     12148     12151     12154     12157
     12149     12148     12151     12152     12149     12148     12151     12153
     12149     12148     12151     12154     12150     12148     12151     12152
     12150     12148     12151     12153     12150     12148     12151     12154
     12151     12154     12157     12158     12151     12154     12157     12159
     12151     12154     12157     12160     12152     12151     12154     12155
     12152     12151     12154     12156     12152     12151     12154     12157
     12153     12151     12154     12155     12153     12151     12154     12156
     12153     12151     12154     12157     12154     12157     12160     12161
     12154     12157     12160     12162     12154     12157     12160     12163
     12155     12154     12157     12158     12155     12154     12157     12159
     12155     12154     12157     12160     12156     12154     12157     12158
     12156     12154     12157     12159     12156     12154     12157     12160
     12157     12160     12163     12164     12157     12160     12163     12165
     12157     12160     12163     12166     12158     12157     12160     12161
     12158     12157     12160     12162     12158     12157     12160     12163
     12159     12157     12160     12161     12159     12157     12160     12162
     12159     12157     12160     12163     12160     12163     12166     12167
     12160     12163     12166     12168     12160     12163     12166     12169
     12161     12160     12163     12164     12161     12160     12163     12165
     12161     12160     12163     12166     12162     12160     12163     12164
     12162     12160     12163     12165     12162     12160     12163     12166
     12163     12166     12169     12170     12163     12166     12169     12171
     12163     12166     12169     12172     12164     12163     12166     12167
     12164     12163     12166     12168     12164     12163     12166     12169
     12165     12163     12166     12167     12165     12163     12166     12168
     12165     12163     12166     12169     12166     12169     12172     12173
     12166     12169     12172     12174     12166     12169     12172     12175
     12167     12166     12169     12170     12167     12166     12169     12171
     12167     12166     12169     12172     12168     12166     12169     12170
     12168     12166     12169     12171     12168     12166     12169     12172
     12169     12172     12175     12176     12169     12172     12175     12177
     12169     12172     12175     12178     12170     12169     12172     12173
     12170     12169     12172     12174     12170     12169     12172     12175
     12171     12169     12172     12173     12171     12169     12172     12174
     12171     12169     12172     12175     12172     12175     12178     12179
     12172     12175     12178     12180     12172     12175     12178     12181
     12173     12172     12175     12176     12173     12172     12175     12177
     12173     12172     12175     12178     12174     12172     12175     12176
     12174     12172     12175     12177     12174     12172     12175     12178
     12175     12178     12181     12182     12175     12178     12181     12183
     12175     12178     12181     12184     12176     12175     12178     12179
     12176     12175     12178     12180     12176     12175     12178     12181
     12177     12175     12178     12179     12177     12175     12178     12180
     12177     12175     12178     12181     12178     12181     12184     12185
     12178     12181     12184     12186     12178     12181     12184     12187
     12179     12178     12181     12182     12179     12178     12181     12183
     12179     12178     12181     12184     12180     12178     12181     12182
     12180     12178     12181     12183     12180     12178     12181     12184
     12181     12184     12187     12188     12181     12184     12187     12189
     12181     12184     12187     12190     12182     12181     12184     12185
     12182     12181     12184     12186     12182     12181     12184     12187
     12183     12181     12184     12185     12183     12181     12184     12186
     12183     12181     12184     12187     12185     12184     12187     12188
     12185     12184     12187     12189     12185     12184     12187     12190
     12186     12184     12187     12188     12186     12184     12187     12189
     12186     12184     12187     12190     12191     12195     12197     12198
     12191     12195     12197     12199     12191     12195     12200     12201
     12191     12195     12200     12202     12191     12195     12200     12206
     12192     12191     12195     12196     12192     12191     12195     12197
     12192     12191     12195     12200     12193     12191     12195     12196
     12193     12191     12195     12197     12193     12191     12195     12200
     12194     12191     12195     12196     12194     12191     12195     12197
     12194     12191     12195     12200     12195     12200     12206     12203
     12196     12195     12197     12198     12196     12195     12197     12199
     12196     12195     12200     12201     12196     12195     12200     12202
     12196     12195     12200     12206     12197     12195     12200     12201
     12197     12195     12200     12202     12197     12195     12200     12206
     12198     12197     12195     12200     12199     12197     12195     12200
     12200     12206     12203     12204     12200     12206     12203     12205
     12200     12206     12203     12207     12201     12200     12206     12203
     12202     12200     12206     12203     12203     12207     12208     12209
     12203     12207     12208     12210     12203     12207     12208     12211
     12204     12203     12207     12208     12205     12203     12207     12208
     12206     12203     12207     12208     12207     12208     12211     12212
     12207     12208     12211     12213     12207     12208     12211     12219
     12208     12211     12213     12214     12208     12211     12219     12220
     12208     12211     12219     12221     12208     12211     12219     12222
     12209     12208     12211     12212     12209     12208     12211     12213
     12209     12208     12211     12219     12210     12208     12211     12212
     12210     12208     12211     12213     12210     12208     12211     12219
     12211     12213     12214     12215     12211     12213     12214     12216
     12211     12219     12222     12223     12212     12211     12213     12214
     12212     12211     12219     12220     12212     12211     12219     12221
     12212     12211     12219     12222     12213     12211     12219     12220
     12213     12211     12219     12221     12213     12211     12219     12222
     12213     12214     12216     12217     12213     12214     12216     12218
     12213     12214     12216     12228     12214     12213     12211     12219
     12214     12216     12228     12229     12214     12216     12228     12230
     12214     12216     12228     12231     12215     12214     12216     12217
     12215     12214     12216     12218     12215     12214     12216     12228
     12216     12228     12231     12232     12216     12228     12231     12233
     12216     12228     12231     12234     12217     12216     12228     12229
     12217     12216     12228     12230     12217     12216     12228     12231
     12218     12216     12228     12229     12218     12216     12228     12230
     12218     12216     12228     12231     12219     12222     12223     12224
     12219     12222     12223     12225     12220     12219     12222     12223
     12221     12219     12222     12223     12222     12223     12225     12226
     12222     12223     12225     12227     12222     12223     12225     12275
     12223     12225     12275     12276     12223     12225     12275     12277
     12223     12225     12275     12278     12224     12223     12225     12226
     12224     12223     12225     12227     12224     12223     12225     12275
     12225     12275     12278     12279     12225     12275     12278     12280
     12225     12275     12278     12281     12226     12225     12275     12276
     12226     12225     12275     12277     12226     12225     12275     12278
     12227     12225     12275     12276     12227     12225     12275     12277
     12227     12225     12275     12278     12228     12231     12234     12235
     12228     12231     12234     12236     12229     12228     12231     12232
     12229     12228     12231     12233     12229     12228     12231     12234
     12230     12228     12231     12232     12230     12228     12231     12233
     12230     12228     12231     12234     12231     12234     12236     12237
     12231     12234     12236     12238     12232     12231     12234     12235
     12232     12231     12234     12236     12233     12231     12234     12235
     12233     12231     12234     12236     12234     12236     12238     12239
     12234     12236     12238     12240     12234     12236     12238     12241
     12235     12234     12236     12237     12235     12234     12236     12238
     12236     12238     12241     12242     12236     12238     12241     12243
     12237     12236     12238     12239     12237     12236     12238     12240
     12237     12236     12238     12241     12238     12241     12243     12244
     12238     12241     12243     12245     12239     12238     12241     12242
     12239     12238     12241     12243     12240     12238     12241     12242
     12240     12238     12241     12243     12241     12243     12245     12246
     12241     12243     12245     12247     12241     12243     12245     12248
     12242     12241     12243     12244     12242     12241     12243     12245
     12243     12245     12248     12249     12243     12245     12248     12250
     12244     12243     12245     12246     12244     12243     12245     12247
     12244     12243     12245     12248     12245     12248     12250     12251
     12245     12248     12250     12252     12246     12245     12248     12249
     12246     12245     12248     12250     12247     12245     12248     12249
     12247     12245     12248     12250     12248     12250     12252     12253
     12248     12250     12252     12254     12248     12250     12252     12255
     12249     12248     12250     12251     12249     12248     12250     12252
     12250     12252     12255     12256     12250     12252     12255     12257
     12251     12250     12252     12253     12251     12250     12252     12254
     12251     12250     12252     12255     12252     12255     12257     12258
     12252     12255     12257     12259     12253     12252     12255     12256
     12253     12252     12255     12257     12254     12252     12255     12256
     12254     12252     12255     12257     12255     12257     12259     12260
     12255     12257     12259     12261     12255     12257     12259     12262
     12256     12255     12257     12258     12256     12255     12257     12259
     12257     12259     12262     12263     12257     12259     12262     12264
     12257     12259     12262     12265     12258     12257     12259     12260
     12258     12257     12259     12261     12258     12257     12259     12262
     12259     12262     12265     12266     12259     12262     12265     12267
     12259     12262     12265     12268     12260     12259     12262     12263
     12260     12259     12262     12264     12260     12259     12262     12265
     12261     12259     12262     12263     12261     12259     12262     12264
     12261     12259     12262     12265     12262     12265     12268     12269
     12262     12265     12268     12270     12262     12265     12268     12271
     12263     12262     12265     12266     12263     12262     12265     12267
     12263     12262     12265     12268     12264     12262     12265     12266
     12264     12262     12265     12267     12264     12262     12265     12268
     12265     12268     12271     12272     12265     12268     12271     12273
     12265     12268     12271     12274     12266     12265     12268     12269
     12266     12265     12268     12270     12266     12265     12268     12271
     12267     12265     12268     12269     12267     12265     12268     12270
     12267     12265     12268     12271     12269     12268     12271     12272
     12269     12268     12271     12273     12269     12268     12271     12274
     12270     12268     12271     12272     12270     12268     12271     12273
     12270     12268     12271     12274     12275     12278     12281     12282
     12275     12278     12281     12283     12275     12278     12281     12284
     12276     12275     12278     12279     12276     12275     12278     12280
     12276     12275     12278     12281     12277     12275     12278     12279
     12277     12275     12278     12280     12277     12275     12278     12281
     12278     12281     12284     12285     12278     12281     12284     12286
     12278     12281     12284     12287     12279     12278     12281     12282
     12279     12278     12281     12283     12279     12278     12281     12284
     12280     12278     12281     12282     12280     12278     12281     12283
     12280     12278     12281     12284     12281     12284     12287     12288
     12281     12284     12287     12289     12281     12284     12287     12290
     12282     12281     12284     12285     12282     12281     12284     12286
     12282     12281     12284     12287     12283     12281     12284     12285
     12283     12281     12284     12286     12283     12281     12284     12287
     12284     12287     12290     12291     12284     12287     12290     12292
     12284     12287     12290     12293     12285     12284     12287     12288
     12285     12284     12287     12289     12285     12284     12287     12290
     12286     12284     12287     12288     12286     12284     12287     12289
     12286     12284     12287     12290     12287     12290     12293     12294
     12287     12290     12293     12295     12287     12290     12293     12296
     12288     12287     12290     12291     12288     12287     12290     12292
     12288     12287     12290     12293     12289     12287     12290     12291
     12289     12287     12290     12292     12289     12287     12290     12293
     12290     12293     12296     12297     12290     12293     12296     12298
     12290     12293     12296     12299     12291     12290     12293     12294
     12291     12290     12293     12295     12291     12290     12293     12296
     12292     12290     12293     12294     12292     12290     12293     12295
     12292     12290     12293     12296     12293     12296     12299     12300
     12293     12296     12299     12301     12293     12296     12299     12302
     12294     12293     12296     12297     12294     12293     12296     12298
     12294     12293     12296     12299     12295     12293     12296     12297
     12295     12293     12296     12298     12295     12293     12296     12299
     12296     12299     12302     12303     12296     12299     12302     12304
     12296     12299     12302     12305     12297     12296     12299     12300
     12297     12296     12299     12301     12297     12296     12299     12302
     12298     12296     12299     12300     12298     12296     12299     12301
     12298     12296     12299     12302     12299     12302     12305     12306
     12299     12302     12305     12307     12299     12302     12305     12308
     12300     12299     12302     12303     12300     12299     12302     12304
     12300     12299     12302     12305     12301     12299     12302     12303
     12301     12299     12302     12304     12301     12299     12302     12305
     12302     12305     12308     12309     12302     12305     12308     12310
     12302     12305     12308     12311     12303     12302     12305     12306
     12303     12302     12305     12307     12303     12302     12305     12308
     12304     12302     12305     12306     12304     12302     12305     12307
     12304     12302     12305     12308     12305     12308     12311     12312
     12305     12308     12311     12313     12305     12308     12311     12314
     12306     12305     12308     12309     12306     12305     12308     12310
     12306     12305     12308     12311     12307     12305     12308     12309
     12307     12305     12308     12310     12307     12305     12308     12311
     12308     12311     12314     12315     12308     12311     12314     12316
     12308     12311     12314     12317     12309     12308     12311     12312
     12309     12308     12311     12313     12309     12308     12311     12314
     12310     12308     12311     12312     12310     12308     12311     12313
     12310     12308     12311     12314     12311     12314     12317     12318
     12311     12314     12317     12319     12311     12314     12317     12320
     12312     12311     12314     12315     12312     12311     12314     12316
     12312     12311     12314     12317     12313     12311     12314     12315
     12313     12311     12314     12316     12313     12311     12314     12317
     12314     12317     12320     12321     12314     12317     12320     12322
     12314     12317     12320     12323     12315     12314     12317     12318
     12315     12314     12317     12319     12315     12314     12317     12320
     12316     12314     12317     12318     12316     12314     12317     12319
     12316     12314     12317     12320     12318     12317     12320     12321
     12318     12317     12320     12322     12318     12317     12320     12323
     12319     12317     12320     12321     12319     12317     12320     12322
     12319     12317     12320     12323     12324     12328     12331     12332
     12324     12328     12331     12362     12324     12370     12367     12362
     12324     12370     12367     12368     12324     12370     12367     12369
     12325     12324     12326     12327     12325     12324     12328     12329
     12325     12324     12328     12330     12325     12324     12328     12331
     12325     12324     12370     12367     12325     12324     12370     12371
     12325     12324     12370     12372     12326     12324     12328     12329
     12326     12324     12328     12330     12326     12324     12328     12331
     12326     12324     12370     12367     12326     12324     12370     12371
     12326     12324     12370     12372     12327     12326     12324     12328
     12327     12326     12324     12370     12328     12324     12370     12367
     12328     12324     12370     12371     12328     12324     12370     12372
     12328     12331     12332     12333     12328     12331     12332     12334
     12328     12331     12362     12360     12328     12331     12362     12363
     12328     12331     12362     12367     12329     12328     12324     12370
     12329     12328     12331     12332     12329     12328     12331     12362
     12330     12328     12324     12370     12330     12328     12331     12332
     12330     12328     12331     12362     12331     12328     12324     12370
     12331     12332     12334     12335     12331     12332     12334     12336
     12331     12332     12334     12337     12331     12362     12360     12337
     12331     12362     12360     12357     12331     12362     12360     12361
     12331     12362     12363     12364     12331     12362     12363     12365
     12331     12362     12363     12366     12331     12362     12367     12368
     12331     12362     12367     12369     12331     12362     12367     12370
     12332     12331     12362     12360     12332     12331     12362     12363
     12332     12331     12362     12367     12332     12334     12337     12338
     12332     12334     12337     12339     12332     12334     12337     12360
     12333     12332     12331     12362     12333     12332     12334     12335
     12333     12332     12334     12336     12333     12332     12334     12337
     12334     12332     12331     12362     12334     12337     12339     12340
     12334     12337     12339     12341     12334     12337     12339     12349
     12334     12337     12360     12357     12334     12337     12360     12361
     12334     12337     12360     12362     12335     12334     12337     12338
     12335     12334     12337     12339     12335     12334     12337     12360
     12336     12334     12337     12338     12336     12334     12337     12339
     12336     12334     12337     12360     12337     12339     12341     12342
     12337     12339     12341     12343     12337     12339     12341     12344
     12337     12339     12349     12347     12337     12339     12349     12350
     12337     12339     12349     12354     12337     12360     12357     12354
     12337     12360     12357     12358     12337     12360     12357     12359
     12337     12360     12362     12363     12337     12360     12362     12367
     12338     12337     12339     12340     12338     12337     12339     12341
     12338     12337     12339     12349     12338     12337     12360     12357
     12338     12337     12360     12361     12338     12337     12360     12362
     12339     12337     12360     12357     12339     12337     12360     12361
     12339     12337     12360     12362     12339     12341     12344     12345
     12339     12341     12344     12346     12339     12341     12344     12347
     12339     12349     12347     12344     12339     12349     12347     12348
     12339     12349     12347     12373     12339     12349     12350     12351
     12339     12349     12350     12352     12339     12349     12350     12353
     12339     12349     12354     12355     12339     12349     12354     12356
     12339     12349     12354     12357     12340     12339     12337     12360
     12340     12339     12341     12342     12340     12339     12341     12343
     12340     12339     12341     12344     12340     12339     12349     12347
     12340     12339     12349     12350     12340     12339     12349     12354
     12341     12339     12337     12360     12341     12339     12349     12347
     12341     12339     12349     12350     12341     12339     12349     12354
     12341     12344     12347     12348     12341     12344     12347     12349
     12341     12344     12347     12373     12342     12341     12339     12349
     12342     12341     12344     12345     12342     12341     12344     12346
     12342     12341     12344     12347     12343     12341     12339     12349
     12343     12341     12344     12345     12343     12341     12344     12346
     12343     12341     12344     12347     12344     12341     12339     12349
     12344     12347     12349     12350     12344     12347     12349     12354
     12344     12347     12373     12374     12344     12347     12373     12375
     12344     12347     12373     12379     12345     12344     12347     12348
     12345     12344     12347     12349     12345     12344     12347     12373
     12346     12344     12347     12348     12346     12344     12347     12349
     12346     12344     12347     12373     12347     12349     12350     12351
     12347     12349     12350     12352     12347     12349     12350     12353
     12347     12349     12354     12355     12347     12349     12354     12356
     12347     12349     12354     12357     12347     12373     12375     12376
     12347     12373     12375     12377     12347     12373     12375     12378
     12347     12373     12379     12380     12347     12373     12379     12381
     12347     12373     12379     12382     12348     12347     12349     12350
     12348     12347     12349     12354     12348     12347     12373     12374
     12348     12347     12373     12375     12348     12347     12373     12379
     12349     12339     12337     12360     12349     12347     12373     12374
     12349     12347     12373     12375     12349     12347     12373     12379
     12349     12354     12357     12358     12349     12354     12357     12359
     12349     12354     12357     12360     12350     12349     12347     12373
     12350     12349     12354     12355     12350     12349     12354     12356
     12350     12349     12354     12357     12351     12350     12349     12354
     12352     12350     12349     12354     12353     12350     12349     12354
     12354     12349     12347     12373     12354     12357     12360     12361
     12354     12357     12360     12362     12355     12354     12357     12358
     12355     12354     12357     12359     12355     12354     12357     12360
     12356     12354     12357     12358     12356     12354     12357     12359
     12356     12354     12357     12360     12357     12360     12362     12363
     12357     12360     12362     12367     12358     12357     12360     12361
     12358     12357     12360     12362     12359     12357     12360     12361
     12359     12357     12360     12362     12360     12362     12363     12364
     12360     12362     12363     12365     12360     12362     12363     12366
     12360     12362     12367     12368     12360     12362     12367     12369
     12360     12362     12367     12370     12361     12360     12362     12363
     12361     12360     12362     12367     12362     12367     12370     12371
     12362     12367     12370     12372     12363     12362     12367     12368
     12363     12362     12367     12369     12363     12362     12367     12370
     12364     12363     12362     12367     12365     12363     12362     12367
     12366     12363     12362     12367     12368     12367     12370     12371
     12368     12367     12370     12372     12369     12367     12370     12371
     12369     12367     12370     12372     12373     12379     12382     12383
     12373     12379     12382     12384     12373     12379     12382     12385
     12374     12373     12375     12376     12374     12373     12375     12377
     12374     12373     12375     12378     12374     12373     12379     12380
     12374     12373     12379     12381     12374     12373     12379     12382
     12375     12373     12379     12380     12375     12373     12379     12381
     12375     12373     12379     12382     12376     12375     12373     12379
     12377     12375     12373     12379     12378     12375     12373     12379
     12379     12382     12385     12386     12379     12382     12385     12387
     12379     12382     12385     12388     12380     12379     12382     12383
     12380     12379     12382     12384     12380     12379     12382     12385
     12381     12379     12382     12383     12381     12379     12382     12384
     12381     12379     12382     12385     12382     12385     12388     12389
     12382     12385     12388     12390     12382     12385     12388     12394
     12383     12382     12385     12386     12383     12382     12385     12387
     12383     12382     12385     12388     12384     12382     12385     12386
     12384     12382     12385     12387     12384     12382     12385     12388
     12385     12388     12390     12391     12385     12388     12390     12392
     12385     12388     12390     12393     12385     12388     12394     12395
     12385     12388     12394     12396     12385     12388     12394     12397
     12386     12385     12388     12389     12386     12385     12388     12390
     12386     12385     12388     12394     12387     12385     12388     12389
     12387     12385     12388     12390     12387     12385     12388     12394
     12389     12388     12390     12391     12389     12388     12390     12392
     12389     12388     12390     12393     12389     12388     12394     12395
     12389     12388     12394     12396     12389     12388     12394     12397
     12390     12388     12394     12395     12390     12388     12394     12396
     12390     12388     12394     12397     12391     12390     12388     12394
     12392     12390     12388     12394     12393     12390     12388     12394
     12398     12402     12405     12406     12398     12402     12405     12436
     12398     12444     12441     12436     12398     12444     12441     12442
     12398     12444     12441     12443     12399     12398     12400     12401
     12399     12398     12402     12403     12399     12398     12402     12404
     12399     12398     12402     12405     12399     12398     12444     12441
     12399     12398     12444     12445     12399     12398     12444     12446
     12400     12398     12402     12403     12400     12398     12402     12404
     12400     12398     12402     12405     12400     12398     12444     12441
     12400     12398     12444     12445     12400     12398     12444     12446
     12401     12400     12398     12402     12401     12400     12398     12444
     12402     12398     12444     12441     12402     12398     12444     12445
     12402     12398     12444     12446     12402     12405     12406     12407
     12402     12405     12406     12408     12402     12405     12436     12434
     12402     12405     12436     12437     12402     12405     12436     12441
     12403     12402     12398     12444     12403     12402     12405     12406
     12403     12402     12405     12436     12404     12402     12398     12444
     12404     12402     12405     12406     12404     12402     12405     12436
     12405     12402     12398     12444     12405     12406     12408     12409
     12405     12406     12408     12410     12405     12406     12408     12411
     12405     12436     12434     12411     12405     12436     12434     12431
     12405     12436     12434     12435     12405     12436     12437     12438
     12405     12436     12437     12439     12405     12436     12437     12440
     12405     12436     12441     12442     12405     12436     12441     12443
     12405     12436     12441     12444     12406     12405     12436     12434
     12406     12405     12436     12437     12406     12405     12436     12441
     12406     12408     12411     12412     12406     12408     12411     12413
     12406     12408     12411     12434     12407     12406     12405     12436
     12407     12406     12408     12409     12407     12406     12408     12410
     12407     12406     12408     12411     12408     12406     12405     12436
     12408     12411     12413     12414     12408     12411     12413     12415
     12408     12411     12413     12423     12408     12411     12434     12431
     12408     12411     12434     12435     12408     12411     12434     12436
     12409     12408     12411     12412     12409     12408     12411     12413
     12409     12408     12411     12434     12410     12408     12411     12412
     12410     12408     12411     12413     12410     12408     12411     12434
     12411     12413     12415     12416     12411     12413     12415     12417
     12411     12413     12415     12418     12411     12413     12423     12421
     12411     12413     12423     12424     12411     12413     12423     12428
     12411     12434     12431     12428     12411     12434     12431     12432
     12411     12434     12431     12433     12411     12434     12436     12437
     12411     12434     12436     12441     12412     12411     12413     12414
     12412     12411     12413     12415     12412     12411     12413     12423
     12412     12411     12434     12431     12412     12411     12434     12435
     12412     12411     12434     12436     12413     12411     12434     12431
     12413     12411     12434     12435     12413     12411     12434     12436
     12413     12415     12418     12419     12413     12415     12418     12420
     12413     12415     12418     12421     12413     12423     12421     12418
     12413     12423     12421     12422     12413     12423     12421     12447
     12413     12423     12424     12425     12413     12423     12424     12426
     12413     12423     12424     12427     12413     12423     12428     12429
     12413     12423     12428     12430     12413     12423     12428     12431
     12414     12413     12411     12434     12414     12413     12415     12416
     12414     12413     12415     12417     12414     12413     12415     12418
     12414     12413     12423     12421     12414     12413     12423     12424
     12414     12413     12423     12428     12415     12413     12411     12434
     12415     12413     12423     12421     12415     12413     12423     12424
     12415     12413     12423     12428     12415     12418     12421     12422
     12415     12418     12421     12423     12415     12418     12421     12447
     12416     12415     12413     12423     12416     12415     12418     12419
     12416     12415     12418     12420     12416     12415     12418     12421
     12417     12415     12413     12423     12417     12415     12418     12419
     12417     12415     12418     12420     12417     12415     12418     12421
     12418     12415     12413     12423     12418     12421     12423     12424
     12418     12421     12423     12428     12418     12421     12447     12448
     12418     12421     12447     12449     12418     12421     12447     12453
     12419     12418     12421     12422     12419     12418     12421     12423
     12419     12418     12421     12447     12420     12418     12421     12422
     12420     12418     12421     12423     12420     12418     12421     12447
     12421     12423     12424     12425     12421     12423     12424     12426
     12421     12423     12424     12427     12421     12423     12428     12429
     12421     12423     12428     12430     12421     12423     12428     12431
     12421     12447     12449     12450     12421     12447     12449     12451
     12421     12447     12449     12452     12421     12447     12453     12454
     12421     12447     12453     12455     12421     12447     12453     12456
     12422     12421     12423     12424     12422     12421     12423     12428
     12422     12421     12447     12448     12422     12421     12447     12449
     12422     12421     12447     12453     12423     12413     12411     12434
     12423     12421     12447     12448     12423     12421     12447     12449
     12423     12421     12447     12453     12423     12428     12431     12432
     12423     12428     12431     12433     12423     12428     12431     12434
     12424     12423     12421     12447     12424     12423     12428     12429
     12424     12423     12428     12430     12424     12423     12428     12431
     12425     12424     12423     12428     12426     12424     12423     12428
     12427     12424     12423     12428     12428     12423     12421     12447
     12428     12431     12434     12435     12428     12431     12434     12436
     12429     12428     12431     12432     12429     12428     12431     12433
     12429     12428     12431     12434     12430     12428     12431     12432
     12430     12428     12431     12433     12430     12428     12431     12434
     12431     12434     12436     12437     12431     12434     12436     12441
     12432     12431     12434     12435     12432     12431     12434     12436
     12433     12431     12434     12435     12433     12431     12434     12436
     12434     12436     12437     12438     12434     12436     12437     12439
     12434     12436     12437     12440     12434     12436     12441     12442
     12434     12436     12441     12443     12434     12436     12441     12444
     12435     12434     12436     12437     12435     12434     12436     12441
     12436     12441     12444     12445     12436     12441     12444     12446
     12437     12436     12441     12442     12437     12436     12441     12443
     12437     12436     12441     12444     12438     12437     12436     12441
     12439     12437     12436     12441     12440     12437     12436     12441
     12442     12441     12444     12445     12442     12441     12444     12446
     12443     12441     12444     12445     12443     12441     12444     12446
     12447     12453     12456     12457     12447     12453     12456     12458
     12447     12453     12456     12459     12448     12447     12449     12450
     12448     12447     12449     12451     12448     12447     12449     12452
     12448     12447     12453     12454     12448     12447     12453     12455
     12448     12447     12453     12456     12449     12447     12453     12454
     12449     12447     12453     12455     12449     12447     12453     12456
     12450     12449     12447     12453     12451     12449     12447     12453
     12452     12449     12447     12453     12453     12456     12459     12460
     12453     12456     12459     12461     12453     12456     12459     12462
     12454     12453     12456     12457     12454     12453     12456     12458
     12454     12453     12456     12459     12455     12453     12456     12457
     12455     12453     12456     12458     12455     12453     12456     12459
     12456     12459     12462     12463     12456     12459     12462     12464
     12456     12459     12462     12468     12457     12456     12459     12460
     12457     12456     12459     12461     12457     12456     12459     12462
     12458     12456     12459     12460     12458     12456     12459     12461
     12458     12456     12459     12462     12459     12462     12464     12465
     12459     12462     12464     12466     12459     12462     12464     12467
     12459     12462     12468     12469     12459     12462     12468     12470
     12459     12462     12468     12471     12460     12459     12462     12463
     12460     12459     12462     12464     12460     12459     12462     12468
     12461     12459     12462     12463     12461     12459     12462     12464
     12461     12459     12462     12468     12463     12462     12464     12465
     12463     12462     12464     12466     12463     12462     12464     12467
     12463     12462     12468     12469     12463     12462     12468     12470
     12463     12462     12468     12471     12464     12462     12468     12469
     12464     12462     12468     12470     12464     12462     12468     12471
     12465     12464     12462     12468     12466     12464     12462     12468
     12467     12464     12462     12468     12472     12476     12478     12479
     12472     12476     12478     12480     12472     12476     12481     12482
     12472     12476     12481     12483     12472     12476     12481     12487
     12473     12472     12476     12477     12473     12472     12476     12478
     12473     12472     12476     12481     12474     12472     12476     12477
     12474     12472     12476     12478     12474     12472     12476     12481
     12475     12472     12476     12477     12475     12472     12476     12478
     12475     12472     12476     12481     12476     12481     12487     12484
     12477     12476     12478     12479     12477     12476     12478     12480
     12477     12476     12481     12482     12477     12476     12481     12483
     12477     12476     12481     12487     12478     12476     12481     12482
     12478     12476     12481     12483     12478     12476     12481     12487
     12479     12478     12476     12481     12480     12478     12476     12481
     12481     12487     12484     12485     12481     12487     12484     12486
     12481     12487     12484     12488     12482     12481     12487     12484
     12483     12481     12487     12484     12484     12488     12489     12490
     12484     12488     12489     12491     12484     12488     12489     12492
     12485     12484     12488     12489     12486     12484     12488     12489
     12487     12484     12488     12489     12488     12489     12492     12493
     12488     12489     12492     12494     12488     12489     12492     12500
     12489     12492     12494     12495     12489     12492     12500     12501
     12489     12492     12500     12502     12489     12492     12500     12503
     12490     12489     12492     12493     12490     12489     12492     12494
     12490     12489     12492     12500     12491     12489     12492     12493
     12491     12489     12492     12494     12491     12489     12492     12500
     12492     12494     12495     12496     12492     12494     12495     12497
     12492     12500     12503     12504     12493     12492     12494     12495
     12493     12492     12500     12501     12493     12492     12500     12502
     12493     12492     12500     12503     12494     12492     12500     12501
     12494     12492     12500     12502     12494     12492     12500     12503
     12494     12495     12497     12498     12494     12495     12497     12499
     12494     12495     12497     12509     12495     12494     12492     12500
     12495     12497     12509     12510     12495     12497     12509     12511
     12495     12497     12509     12512     12496     12495     12497     12498
     12496     12495     12497     12499     12496     12495     12497     12509
     12497     12509     12512     12513     12497     12509     12512     12514
     12497     12509     12512     12515     12498     12497     12509     12510
     12498     12497     12509     12511     12498     12497     12509     12512
     12499     12497     12509     12510     12499     12497     12509     12511
     12499     12497     12509     12512     12500     12503     12504     12505
     12500     12503     12504     12506     12501     12500     12503     12504
     12502     12500     12503     12504     12503     12504     12506     12507
     12503     12504     12506     12508     12503     12504     12506     12556
     12504     12506     12556     12557     12504     12506     12556     12558
     12504     12506     12556     12559     12505     12504     12506     12507
     12505     12504     12506     12508     12505     12504     12506     12556
     12506     12556     12559     12560     12506     12556     12559     12561
     12506     12556     12559     12562     12507     12506     12556     12557
     12507     12506     12556     12558     12507     12506     12556     12559
     12508     12506     12556     12557     12508     12506     12556     12558
     12508     12506     12556     12559     12509     12512     12515     12516
     12509     12512     12515     12517     12510     12509     12512     12513
     12510     12509     12512     12514     12510     12509     12512     12515
     12511     12509     12512     12513     12511     12509     12512     12514
     12511     12509     12512     12515     12512     12515     12517     12518
     12512     12515     12517     12519     12513     12512     12515     12516
     12513     12512     12515     12517     12514     12512     12515     12516
     12514     12512     12515     12517     12515     12517     12519     12520
     12515     12517     12519     12521     12515     12517     12519     12522
     12516     12515     12517     12518     12516     12515     12517     12519
     12517     12519     12522     12523     12517     12519     12522     12524
     12518     12517     12519     12520     12518     12517     12519     12521
     12518     12517     12519     12522     12519     12522     12524     12525
     12519     12522     12524     12526     12520     12519     12522     12523
     12520     12519     12522     12524     12521     12519     12522     12523
     12521     12519     12522     12524     12522     12524     12526     12527
     12522     12524     12526     12528     12522     12524     12526     12529
     12523     12522     12524     12525     12523     12522     12524     12526
     12524     12526     12529     12530     12524     12526     12529     12531
     12525     12524     12526     12527     12525     12524     12526     12528
     12525     12524     12526     12529     12526     12529     12531     12532
     12526     12529     12531     12533     12527     12526     12529     12530
     12527     12526     12529     12531     12528     12526     12529     12530
     12528     12526     12529     12531     12529     12531     12533     12534
     12529     12531     12533     12535     12529     12531     12533     12536
     12530     12529     12531     12532     12530     12529     12531     12533
     12531     12533     12536     12537     12531     12533     12536     12538
     12532     12531     12533     12534     12532     12531     12533     12535
     12532     12531     12533     12536     12533     12536     12538     12539
     12533     12536     12538     12540     12534     12533     12536     12537
     12534     12533     12536     12538     12535     12533     12536     12537
     12535     12533     12536     12538     12536     12538     12540     12541
     12536     12538     12540     12542     12536     12538     12540     12543
     12537     12536     12538     12539     12537     12536     12538     12540
     12538     12540     12543     12544     12538     12540     12543     12545
     12538     12540     12543     12546     12539     12538     12540     12541
     12539     12538     12540     12542     12539     12538     12540     12543
     12540     12543     12546     12547     12540     12543     12546     12548
     12540     12543     12546     12549     12541     12540     12543     12544
     12541     12540     12543     12545     12541     12540     12543     12546
     12542     12540     12543     12544     12542     12540     12543     12545
     12542     12540     12543     12546     12543     12546     12549     12550
     12543     12546     12549     12551     12543     12546     12549     12552
     12544     12543     12546     12547     12544     12543     12546     12548
     12544     12543     12546     12549     12545     12543     12546     12547
     12545     12543     12546     12548     12545     12543     12546     12549
     12546     12549     12552     12553     12546     12549     12552     12554
     12546     12549     12552     12555     12547     12546     12549     12550
     12547     12546     12549     12551     12547     12546     12549     12552
     12548     12546     12549     12550     12548     12546     12549     12551
     12548     12546     12549     12552     12550     12549     12552     12553
     12550     12549     12552     12554     12550     12549     12552     12555
     12551     12549     12552     12553     12551     12549     12552     12554
     12551     12549     12552     12555     12556     12559     12562     12563
     12556     12559     12562     12564     12556     12559     12562     12565
     12557     12556     12559     12560     12557     12556     12559     12561
     12557     12556     12559     12562     12558     12556     12559     12560
     12558     12556     12559     12561     12558     12556     12559     12562
     12559     12562     12565     12566     12559     12562     12565     12567
     12559     12562     12565     12568     12560     12559     12562     12563
     12560     12559     12562     12564     12560     12559     12562     12565
     12561     12559     12562     12563     12561     12559     12562     12564
     12561     12559     12562     12565     12562     12565     12568     12569
     12562     12565     12568     12570     12562     12565     12568     12571
     12563     12562     12565     12566     12563     12562     12565     12567
     12563     12562     12565     12568     12564     12562     12565     12566
     12564     12562     12565     12567     12564     12562     12565     12568
     12565     12568     12571     12572     12565     12568     12571     12573
     12565     12568     12571     12574     12566     12565     12568     12569
     12566     12565     12568     12570     12566     12565     12568     12571
     12567     12565     12568     12569     12567     12565     12568     12570
     12567     12565     12568     12571     12568     12571     12574     12575
     12568     12571     12574     12576     12568     12571     12574     12577
     12569     12568     12571     12572     12569     12568     12571     12573
     12569     12568     12571     12574     12570     12568     12571     12572
     12570     12568     12571     12573     12570     12568     12571     12574
     12571     12574     12577     12578     12571     12574     12577     12579
     12571     12574     12577     12580     12572     12571     12574     12575
     12572     12571     12574     12576     12572     12571     12574     12577
     12573     12571     12574     12575     12573     12571     12574     12576
     12573     12571     12574     12577     12574     12577     12580     12581
     12574     12577     12580     12582     12574     12577     12580     12583
     12575     12574     12577     12578     12575     12574     12577     12579
     12575     12574     12577     12580     12576     12574     12577     12578
     12576     12574     12577     12579     12576     12574     12577     12580
     12577     12580     12583     12584     12577     12580     12583     12585
     12577     12580     12583     12586     12578     12577     12580     12581
     12578     12577     12580     12582     12578     12577     12580     12583
     12579     12577     12580     12581     12579     12577     12580     12582
     12579     12577     12580     12583     12580     12583     12586     12587
     12580     12583     12586     12588     12580     12583     12586     12589
     12581     12580     12583     12584     12581     12580     12583     12585
     12581     12580     12583     12586     12582     12580     12583     12584
     12582     12580     12583     12585     12582     12580     12583     12586
     12583     12586     12589     12590     12583     12586     12589     12591
     12583     12586     12589     12592     12584     12583     12586     12587
     12584     12583     12586     12588     12584     12583     12586     12589
     12585     12583     12586     12587     12585     12583     12586     12588
     12585     12583     12586     12589     12586     12589     12592     12593
     12586     12589     12592     12594     12586     12589     12592     12595
     12587     12586     12589     12590     12587     12586     12589     12591
     12587     12586     12589     12592     12588     12586     12589     12590
     12588     12586     12589     12591     12588     12586     12589     12592
     12589     12592     12595     12596     12589     12592     12595     12597
     12589     12592     12595     12598     12590     12589     12592     12593
     12590     12589     12592     12594     12590     12589     12592     12595
     12591     12589     12592     12593     12591     12589     12592     12594
     12591     12589     12592     12595     12592     12595     12598     12599
     12592     12595     12598     12600     12592     12595     12598     12601
     12593     12592     12595     12596     12593     12592     12595     12597
     12593     12592     12595     12598     12594     12592     12595     12596
     12594     12592     12595     12597     12594     12592     12595     12598
     12595     12598     12601     12602     12595     12598     12601     12603
     12595     12598     12601     12604     12596     12595     12598     12599
     12596     12595     12598     12600     12596     12595     12598     12601
     12597     12595     12598     12599     12597     12595     12598     12600
     12597     12595     12598     12601     12599     12598     12601     12602
     12599     12598     12601     12603     12599     12598     12601     12604
     12600     12598     12601     12602     12600     12598     12601     12603
     12600     12598     12601     12604     12605     12609     12612     12613
     12605     12609     12612     12614     12605     12609     12612     12618
     12606     12605     12609     12610     12606     12605     12609     12611
     12606     12605     12609     12612     12607     12605     12609     12610
     12607     12605     12609     12611     12607     12605     12609     12612
     12608     12605     12609     12610     12608     12605     12609     12611
     12608     12605     12609     12612     12609     12612     12618     12615
     12610     12609     12612     12613     12610     12609     12612     12614
     12610     12609     12612     12618     12611     12609     12612     12613
     12611     12609     12612     12614     12611     12609     12612     12618
     12612     12618     12615     12616     12612     12618     12615     12617
     12612     12618     12615     12619     12613     12612     12618     12615
     12614     12612     12618     12615     12615     12619     12620     12621
     12615     12619     12620     12622     12615     12619     12620     12623
     12616     12615     12619     12620     12617     12615     12619     12620
     12618     12615     12619     12620     12619     12620     12623     12624
     12619     12620     12623     12625     12619     12620     12623     12631
     12620     12623     12625     12626     12620     12623     12631     12632
     12620     12623     12631     12633     12620     12623     12631     12634
     12621     12620     12623     12624     12621     12620     12623     12625
     12621     12620     12623     12631     12622     12620     12623     12624
     12622     12620     12623     12625     12622     12620     12623     12631
     12623     12625     12626     12627     12623     12625     12626     12628
     12623     12631     12634     12635     12624     12623     12625     12626
     12624     12623     12631     12632     12624     12623     12631     12633
     12624     12623     12631     12634     12625     12623     12631     12632
     12625     12623     12631     12633     12625     12623     12631     12634
     12625     12626     12628     12629     12625     12626     12628     12630
     12625     12626     12628     12640     12626     12625     12623     12631
     12626     12628     12640     12641     12626     12628     12640     12642
     12626     12628     12640     12643     12627     12626     12628     12629
     12627     12626     12628     12630     12627     12626     12628     12640
     12628     12640     12643     12644     12628     12640     12643     12645
     12628     12640     12643     12646     12629     12628     12640     12641
     12629     12628     12640     12642     12629     12628     12640     12643
     12630     12628     12640     12641     12630     12628     12640     12642
     12630     12628     12640     12643     12631     12634     12635     12636
     12631     12634     12635     12637     12632     12631     12634     12635
     12633     12631     12634     12635     12634     12635     12637     12638
     12634     12635     12637     12639     12634     12635     12637     12687
     12635     12637     12687     12688     12635     12637     12687     12689
     12635     12637     12687     12690     12636     12635     12637     12638
     12636     12635     12637     12639     12636     12635     12637     12687
     12637     12687     12690     12691     12637     12687     12690     12692
     12637     12687     12690     12693     12638     12637     12687     12688
     12638     12637     12687     12689     12638     12637     12687     12690
     12639     12637     12687     12688     12639     12637     12687     12689
     12639     12637     12687     12690     12640     12643     12646     12647
     12640     12643     12646     12648     12641     12640     12643     12644
     12641     12640     12643     12645     12641     12640     12643     12646
     12642     12640     12643     12644     12642     12640     12643     12645
     12642     12640     12643     12646     12643     12646     12648     12649
     12643     12646     12648     12650     12644     12643     12646     12647
     12644     12643     12646     12648     12645     12643     12646     12647
     12645     12643     12646     12648     12646     12648     12650     12651
     12646     12648     12650     12652     12646     12648     12650     12653
     12647     12646     12648     12649     12647     12646     12648     12650
     12648     12650     12653     12654     12648     12650     12653     12655
     12649     12648     12650     12651     12649     12648     12650     12652
     12649     12648     12650     12653     12650     12653     12655     12656
     12650     12653     12655     12657     12651     12650     12653     12654
     12651     12650     12653     12655     12652     12650     12653     12654
     12652     12650     12653     12655     12653     12655     12657     12658
     12653     12655     12657     12659     12653     12655     12657     12660
     12654     12653     12655     12656     12654     12653     12655     12657
     12655     12657     12660     12661     12655     12657     12660     12662
     12656     12655     12657     12658     12656     12655     12657     12659
     12656     12655     12657     12660     12657     12660     12662     12663
     12657     12660     12662     12664     12658     12657     12660     12661
     12658     12657     12660     12662     12659     12657     12660     12661
     12659     12657     12660     12662     12660     12662     12664     12665
     12660     12662     12664     12666     12660     12662     12664     12667
     12661     12660     12662     12663     12661     12660     12662     12664
     12662     12664     12667     12668     12662     12664     12667     12669
     12663     12662     12664     12665     12663     12662     12664     12666
     12663     12662     12664     12667     12664     12667     12669     12670
     12664     12667     12669     12671     12665     12664     12667     12668
     12665     12664     12667     12669     12666     12664     12667     12668
     12666     12664     12667     12669     12667     12669     12671     12672
     12667     12669     12671     12673     12667     12669     12671     12674
     12668     12667     12669     12670     12668     12667     12669     12671
     12669     12671     12674     12675     12669     12671     12674     12676
     12669     12671     12674     12677     12670     12669     12671     12672
     12670     12669     12671     12673     12670     12669     12671     12674
     12671     12674     12677     12678     12671     12674     12677     12679
     12671     12674     12677     12680     12672     12671     12674     12675
     12672     12671     12674     12676     12672     12671     12674     12677
     12673     12671     12674     12675     12673     12671     12674     12676
     12673     12671     12674     12677     12674     12677     12680     12681
     12674     12677     12680     12682     12674     12677     12680     12683
     12675     12674     12677     12678     12675     12674     12677     12679
     12675     12674     12677     12680     12676     12674     12677     12678
     12676     12674     12677     12679     12676     12674     12677     12680
     12677     12680     12683     12684     12677     12680     12683     12685
     12677     12680     12683     12686     12678     12677     12680     12681
     12678     12677     12680     12682     12678     12677     12680     12683
     12679     12677     12680     12681     12679     12677     12680     12682
     12679     12677     12680     12683     12681     12680     12683     12684
     12681     12680     12683     12685     12681     12680     12683     12686
     12682     12680     12683     12684     12682     12680     12683     12685
     12682     12680     12683     12686     12687     12690     12693     12694
     12687     12690     12693     12695     12687     12690     12693     12696
     12688     12687     12690     12691     12688     12687     12690     12692
     12688     12687     12690     12693     12689     12687     12690     12691
     12689     12687     12690     12692     12689     12687     12690     12693
     12690     12693     12696     12697     12690     12693     12696     12698
     12690     12693     12696     12699     12691     12690     12693     12694
     12691     12690     12693     12695     12691     12690     12693     12696
     12692     12690     12693     12694     12692     12690     12693     12695
     12692     12690     12693     12696     12693     12696     12699     12700
     12693     12696     12699     12701     12693     12696     12699     12702
     12694     12693     12696     12697     12694     12693     12696     12698
     12694     12693     12696     12699     12695     12693     12696     12697
     12695     12693     12696     12698     12695     12693     12696     12699
     12696     12699     12702     12703     12696     12699     12702     12704
     12696     12699     12702     12705     12697     12696     12699     12700
     12697     12696     12699     12701     12697     12696     12699     12702
     12698     12696     12699     12700     12698     12696     12699     12701
     12698     12696     12699     12702     12699     12702     12705     12706
     12699     12702     12705     12707     12699     12702     12705     12708
     12700     12699     12702     12703     12700     12699     12702     12704
     12700     12699     12702     12705     12701     12699     12702     12703
     12701     12699     12702     12704     12701     12699     12702     12705
     12702     12705     12708     12709     12702     12705     12708     12710
     12702     12705     12708     12711     12703     12702     12705     12706
     12703     12702     12705     12707     12703     12702     12705     12708
     12704     12702     12705     12706     12704     12702     12705     12707
     12704     12702     12705     12708     12705     12708     12711     12712
     12705     12708     12711     12713     12705     12708     12711     12714
     12706     12705     12708     12709     12706     12705     12708     12710
     12706     12705     12708     12711     12707     12705     12708     12709
     12707     12705     12708     12710     12707     12705     12708     12711
     12708     12711     12714     12715     12708     12711     12714     12716
     12708     12711     12714     12717     12709     12708     12711     12712
     12709     12708     12711     12713     12709     12708     12711     12714
     12710     12708     12711     12712     12710     12708     12711     12713
     12710     12708     12711     12714     12711     12714     12717     12718
     12711     12714     12717     12719     12711     12714     12717     12720
     12712     12711     12714     12715     12712     12711     12714     12716
     12712     12711     12714     12717     12713     12711     12714     12715
     12713     12711     12714     12716     12713     12711     12714     12717
     12714     12717     12720     12721     12714     12717     12720     12722
     12714     12717     12720     12723     12715     12714     12717     12718
     12715     12714     12717     12719     12715     12714     12717     12720
     12716     12714     12717     12718     12716     12714     12717     12719
     12716     12714     12717     12720     12717     12720     12723     12724
     12717     12720     12723     12725     12717     12720     12723     12726
     12718     12717     12720     12721     12718     12717     12720     12722
     12718     12717     12720     12723     12719     12717     12720     12721
     12719     12717     12720     12722     12719     12717     12720     12723
     12720     12723     12726     12727     12720     12723     12726     12728
     12720     12723     12726     12729     12721     12720     12723     12724
     12721     12720     12723     12725     12721     12720     12723     12726
     12722     12720     12723     12724     12722     12720     12723     12725
     12722     12720     12723     12726     12723     12726     12729     12730
     12723     12726     12729     12731     12723     12726     12729     12732
     12724     12723     12726     12727     12724     12723     12726     12728
     12724     12723     12726     12729     12725     12723     12726     12727
     12725     12723     12726     12728     12725     12723     12726     12729
     12726     12729     12732     12733     12726     12729     12732     12734
     12726     12729     12732     12735     12727     12726     12729     12730
     12727     12726     12729     12731     12727     12726     12729     12732
     12728     12726     12729     12730     12728     12726     12729     12731
     12728     12726     12729     12732     12730     12729     12732     12733
     12730     12729     12732     12734     12730     12729     12732     12735
     12731     12729     12732     12733     12731     12729     12732     12734
     12731     12729     12732     12735     12736     12740     12743     12744
     12736     12740     12743     12774     12736     12782     12779     12774
     12736     12782     12779     12780     12736     12782     12779     12781
     12737     12736     12738     12739     12737     12736     12740     12741
     12737     12736     12740     12742     12737     12736     12740     12743
     12737     12736     12782     12779     12737     12736     12782     12783
     12737     12736     12782     12784     12738     12736     12740     12741
     12738     12736     12740     12742     12738     12736     12740     12743
     12738     12736     12782     12779     12738     12736     12782     12783
     12738     12736     12782     12784     12739     12738     12736     12740
     12739     12738     12736     12782     12740     12736     12782     12779
     12740     12736     12782     12783     12740     12736     12782     12784
     12740     12743     12744     12745     12740     12743     12744     12746
     12740     12743     12774     12772     12740     12743     12774     12775
     12740     12743     12774     12779     12741     12740     12736     12782
     12741     12740     12743     12744     12741     12740     12743     12774
     12742     12740     12736     12782     12742     12740     12743     12744
     12742     12740     12743     12774     12743     12740     12736     12782
     12743     12744     12746     12747     12743     12744     12746     12748
     12743     12744     12746     12749     12743     12774     12772     12749
     12743     12774     12772     12769     12743     12774     12772     12773
     12743     12774     12775     12776     12743     12774     12775     12777
     12743     12774     12775     12778     12743     12774     12779     12780
     12743     12774     12779     12781     12743     12774     12779     12782
     12744     12743     12774     12772     12744     12743     12774     12775
     12744     12743     12774     12779     12744     12746     12749     12750
     12744     12746     12749     12751     12744     12746     12749     12772
     12745     12744     12743     12774     12745     12744     12746     12747
     12745     12744     12746     12748     12745     12744     12746     12749
     12746     12744     12743     12774     12746     12749     12751     12752
     12746     12749     12751     12753     12746     12749     12751     12761
     12746     12749     12772     12769     12746     12749     12772     12773
     12746     12749     12772     12774     12747     12746     12749     12750
     12747     12746     12749     12751     12747     12746     12749     12772
     12748     12746     12749     12750     12748     12746     12749     12751
     12748     12746     12749     12772     12749     12751     12753     12754
     12749     12751     12753     12755     12749     12751     12753     12756
     12749     12751     12761     12759     12749     12751     12761     12762
     12749     12751     12761     12766     12749     12772     12769     12766
     12749     12772     12769     12770     12749     12772     12769     12771
     12749     12772     12774     12775     12749     12772     12774     12779
     12750     12749     12751     12752     12750     12749     12751     12753
     12750     12749     12751     12761     12750     12749     12772     12769
     12750     12749     12772     12773     12750     12749     12772     12774
     12751     12749     12772     12769     12751     12749     12772     12773
     12751     12749     12772     12774     12751     12753     12756     12757
     12751     12753     12756     12758     12751     12753     12756     12759
     12751     12761     12759     12756     12751     12761     12759     12760
     12751     12761     12759     12785     12751     12761     12762     12763
     12751     12761     12762     12764     12751     12761     12762     12765
     12751     12761     12766     12767     12751     12761     12766     12768
     12751     12761     12766     12769     12752     12751     12749     12772
     12752     12751     12753     12754     12752     12751     12753     12755
     12752     12751     12753     12756     12752     12751     12761     12759
     12752     12751     12761     12762     12752     12751     12761     12766
     12753     12751     12749     12772     12753     12751     12761     12759
     12753     12751     12761     12762     12753     12751     12761     12766
     12753     12756     12759     12760     12753     12756     12759     12761
     12753     12756     12759     12785     12754     12753     12751     12761
     12754     12753     12756     12757     12754     12753     12756     12758
     12754     12753     12756     12759     12755     12753     12751     12761
     12755     12753     12756     12757     12755     12753     12756     12758
     12755     12753     12756     12759     12756     12753     12751     12761
     12756     12759     12761     12762     12756     12759     12761     12766
     12756     12759     12785     12786     12756     12759     12785     12787
     12756     12759     12785     12791     12757     12756     12759     12760
     12757     12756     12759     12761     12757     12756     12759     12785
     12758     12756     12759     12760     12758     12756     12759     12761
     12758     12756     12759     12785     12759     12761     12762     12763
     12759     12761     12762     12764     12759     12761     12762     12765
     12759     12761     12766     12767     12759     12761     12766     12768
     12759     12761     12766     12769     12759     12785     12787     12788
     12759     12785     12787     12789     12759     12785     12787     12790
     12759     12785     12791     12792     12759     12785     12791     12793
     12759     12785     12791     12794     12760     12759     12761     12762
     12760     12759     12761     12766     12760     12759     12785     12786
     12760     12759     12785     12787     12760     12759     12785     12791
     12761     12751     12749     12772     12761     12759     12785     12786
     12761     12759     12785     12787     12761     12759     12785     12791
     12761     12766     12769     12770     12761     12766     12769     12771
     12761     12766     12769     12772     12762     12761     12759     12785
     12762     12761     12766     12767     12762     12761     12766     12768
     12762     12761     12766     12769     12763     12762     12761     12766
     12764     12762     12761     12766     12765     12762     12761     12766
     12766     12761     12759     12785     12766     12769     12772     12773
     12766     12769     12772     12774     12767     12766     12769     12770
     12767     12766     12769     12771     12767     12766     12769     12772
     12768     12766     12769     12770     12768     12766     12769     12771
     12768     12766     12769     12772     12769     12772     12774     12775
     12769     12772     12774     12779     12770     12769     12772     12773
     12770     12769     12772     12774     12771     12769     12772     12773
     12771     12769     12772     12774     12772     12774     12775     12776
     12772     12774     12775     12777     12772     12774     12775     12778
     12772     12774     12779     12780     12772     12774     12779     12781
     12772     12774     12779     12782     12773     12772     12774     12775
     12773     12772     12774     12779     12774     12779     12782     12783
     12774     12779     12782     12784     12775     12774     12779     12780
     12775     12774     12779     12781     12775     12774     12779     12782
     12776     12775     12774     12779     12777     12775     12774     12779
     12778     12775     12774     12779     12780     12779     12782     12783
     12780     12779     12782     12784     12781     12779     12782     12783
     12781     12779     12782     12784     12785     12791     12794     12795
     12785     12791     12794     12796     12785     12791     12794     12797
     12786     12785     12787     12788     12786     12785     12787     12789
     12786     12785     12787     12790     12786     12785     12791     12792
     12786     12785     12791     12793     12786     12785     12791     12794
     12787     12785     12791     12792     12787     12785     12791     12793
     12787     12785     12791     12794     12788     12787     12785     12791
     12789     12787     12785     12791     12790     12787     12785     12791
     12791     12794     12797     12798     12791     12794     12797     12799
     12791     12794     12797     12800     12792     12791     12794     12795
     12792     12791     12794     12796     12792     12791     12794     12797
     12793     12791     12794     12795     12793     12791     12794     12796
     12793     12791     12794     12797     12794     12797     12800     12801
     12794     12797     12800     12802     12794     12797     12800     12806
     12795     12794     12797     12798     12795     12794     12797     12799
     12795     12794     12797     12800     12796     12794     12797     12798
     12796     12794     12797     12799     12796     12794     12797     12800
     12797     12800     12802     12803     12797     12800     12802     12804
     12797     12800     12802     12805     12797     12800     12806     12807
     12797     12800     12806     12808     12797     12800     12806     12809
     12798     12797     12800     12801     12798     12797     12800     12802
     12798     12797     12800     12806     12799     12797     12800     12801
     12799     12797     12800     12802     12799     12797     12800     12806
     12801     12800     12802     12803     12801     12800     12802     12804
     12801     12800     12802     12805     12801     12800     12806     12807
     12801     12800     12806     12808     12801     12800     12806     12809
     12802     12800     12806     12807     12802     12800     12806     12808
     12802     12800     12806     12809     12803     12802     12800     12806
     12804     12802     12800     12806     12805     12802     12800     12806
     12810     12814     12817     12818     12810     12814     12817     12848
     12810     12856     12853     12848     12810     12856     12853     12854
     12810     12856     12853     12855     12811     12810     12812     12813
     12811     12810     12814     12815     12811     12810     12814     12816
     12811     12810     12814     12817     12811     12810     12856     12853
     12811     12810     12856     12857     12811     12810     12856     12858
     12812     12810     12814     12815     12812     12810     12814     12816
     12812     12810     12814     12817     12812     12810     12856     12853
     12812     12810     12856     12857     12812     12810     12856     12858
     12813     12812     12810     12814     12813     12812     12810     12856
     12814     12810     12856     12853     12814     12810     12856     12857
     12814     12810     12856     12858     12814     12817     12818     12819
     12814     12817     12818     12820     12814     12817     12848     12846
     12814     12817     12848     12849     12814     12817     12848     12853
     12815     12814     12810     12856     12815     12814     12817     12818
     12815     12814     12817     12848     12816     12814     12810     12856
     12816     12814     12817     12818     12816     12814     12817     12848
     12817     12814     12810     12856     12817     12818     12820     12821
     12817     12818     12820     12822     12817     12818     12820     12823
     12817     12848     12846     12823     12817     12848     12846     12843
     12817     12848     12846     12847     12817     12848     12849     12850
     12817     12848     12849     12851     12817     12848     12849     12852
     12817     12848     12853     12854     12817     12848     12853     12855
     12817     12848     12853     12856     12818     12817     12848     12846
     12818     12817     12848     12849     12818     12817     12848     12853
     12818     12820     12823     12824     12818     12820     12823     12825
     12818     12820     12823     12846     12819     12818     12817     12848
     12819     12818     12820     12821     12819     12818     12820     12822
     12819     12818     12820     12823     12820     12818     12817     12848
     12820     12823     12825     12826     12820     12823     12825     12827
     12820     12823     12825     12835     12820     12823     12846     12843
     12820     12823     12846     12847     12820     12823     12846     12848
     12821     12820     12823     12824     12821     12820     12823     12825
     12821     12820     12823     12846     12822     12820     12823     12824
     12822     12820     12823     12825     12822     12820     12823     12846
     12823     12825     12827     12828     12823     12825     12827     12829
     12823     12825     12827     12830     12823     12825     12835     12833
     12823     12825     12835     12836     12823     12825     12835     12840
     12823     12846     12843     12840     12823     12846     12843     12844
     12823     12846     12843     12845     12823     12846     12848     12849
     12823     12846     12848     12853     12824     12823     12825     12826
     12824     12823     12825     12827     12824     12823     12825     12835
     12824     12823     12846     12843     12824     12823     12846     12847
     12824     12823     12846     12848     12825     12823     12846     12843
     12825     12823     12846     12847     12825     12823     12846     12848
     12825     12827     12830     12831     12825     12827     12830     12832
     12825     12827     12830     12833     12825     12835     12833     12830
     12825     12835     12833     12834     12825     12835     12833     12859
     12825     12835     12836     12837     12825     12835     12836     12838
     12825     12835     12836     12839     12825     12835     12840     12841
     12825     12835     12840     12842     12825     12835     12840     12843
     12826     12825     12823     12846     12826     12825     12827     12828
     12826     12825     12827     12829     12826     12825     12827     12830
     12826     12825     12835     12833     12826     12825     12835     12836
     12826     12825     12835     12840     12827     12825     12823     12846
     12827     12825     12835     12833     12827     12825     12835     12836
     12827     12825     12835     12840     12827     12830     12833     12834
     12827     12830     12833     12835     12827     12830     12833     12859
     12828     12827     12825     12835     12828     12827     12830     12831
     12828     12827     12830     12832     12828     12827     12830     12833
     12829     12827     12825     12835     12829     12827     12830     12831
     12829     12827     12830     12832     12829     12827     12830     12833
     12830     12827     12825     12835     12830     12833     12835     12836
     12830     12833     12835     12840     12830     12833     12859     12860
     12830     12833     12859     12861     12830     12833     12859     12865
     12831     12830     12833     12834     12831     12830     12833     12835
     12831     12830     12833     12859     12832     12830     12833     12834
     12832     12830     12833     12835     12832     12830     12833     12859
     12833     12835     12836     12837     12833     12835     12836     12838
     12833     12835     12836     12839     12833     12835     12840     12841
     12833     12835     12840     12842     12833     12835     12840     12843
     12833     12859     12861     12862     12833     12859     12861     12863
     12833     12859     12861     12864     12833     12859     12865     12866
     12833     12859     12865     12867     12833     12859     12865     12868
     12834     12833     12835     12836     12834     12833     12835     12840
     12834     12833     12859     12860     12834     12833     12859     12861
     12834     12833     12859     12865     12835     12825     12823     12846
     12835     12833     12859     12860     12835     12833     12859     12861
     12835     12833     12859     12865     12835     12840     12843     12844
     12835     12840     12843     12845     12835     12840     12843     12846
     12836     12835     12833     12859     12836     12835     12840     12841
     12836     12835     12840     12842     12836     12835     12840     12843
     12837     12836     12835     12840     12838     12836     12835     12840
     12839     12836     12835     12840     12840     12835     12833     12859
     12840     12843     12846     12847     12840     12843     12846     12848
     12841     12840     12843     12844     12841     12840     12843     12845
     12841     12840     12843     12846     12842     12840     12843     12844
     12842     12840     12843     12845     12842     12840     12843     12846
     12843     12846     12848     12849     12843     12846     12848     12853
     12844     12843     12846     12847     12844     12843     12846     12848
     12845     12843     12846     12847     12845     12843     12846     12848
     12846     12848     12849     12850     12846     12848     12849     12851
     12846     12848     12849     12852     12846     12848     12853     12854
     12846     12848     12853     12855     12846     12848     12853     12856
     12847     12846     12848     12849     12847     12846     12848     12853
     12848     12853     12856     12857     12848     12853     12856     12858
     12849     12848     12853     12854     12849     12848     12853     12855
     12849     12848     12853     12856     12850     12849     12848     12853
     12851     12849     12848     12853     12852     12849     12848     12853
     12854     12853     12856     12857     12854     12853     12856     12858
     12855     12853     12856     12857     12855     12853     12856     12858
     12859     12865     12868     12869     12859     12865     12868     12870
     12859     12865     12868     12871     12860     12859     12861     12862
     12860     12859     12861     12863     12860     12859     12861     12864
     12860     12859     12865     12866     12860     12859     12865     12867
     12860     12859     12865     12868     12861     12859     12865     12866
     12861     12859     12865     12867     12861     12859     12865     12868
     12862     12861     12859     12865     12863     12861     12859     12865
     12864     12861     12859     12865     12865     12868     12871     12872
     12865     12868     12871     12873     12865     12868     12871     12874
     12866     12865     12868     12869     12866     12865     12868     12870
     12866     12865     12868     12871     12867     12865     12868     12869
     12867     12865     12868     12870     12867     12865     12868     12871
     12868     12871     12874     12875     12868     12871     12874     12876
     12868     12871     12874     12880     12869     12868     12871     12872
     12869     12868     12871     12873     12869     12868     12871     12874
     12870     12868     12871     12872     12870     12868     12871     12873
     12870     12868     12871     12874     12871     12874     12876     12877
     12871     12874     12876     12878     12871     12874     12876     12879
     12871     12874     12880     12881     12871     12874     12880     12882
     12871     12874     12880     12883     12872     12871     12874     12875
     12872     12871     12874     12876     12872     12871     12874     12880
     12873     12871     12874     12875     12873     12871     12874     12876
     12873     12871     12874     12880     12875     12874     12876     12877
     12875     12874     12876     12878     12875     12874     12876     12879
     12875     12874     12880     12881     12875     12874     12880     12882
     12875     12874     12880     12883     12876     12874     12880     12881
     12876     12874     12880     12882     12876     12874     12880     12883
     12877     12876     12874     12880     12878     12876     12874     12880
     12879     12876     12874     12880     12884     12888     12891     12892
     12884     12888     12891     12922     12884     12930     12927     12922
     12884     12930     12927     12928     12884     12930     12927     12929
     12885     12884     12886     12887     12885     12884     12888     12889
     12885     12884     12888     12890     12885     12884     12888     12891
     12885     12884     12930     12927     12885     12884     12930     12931
     12885     12884     12930     12932     12886     12884     12888     12889
     12886     12884     12888     12890     12886     12884     12888     12891
     12886     12884     12930     12927     12886     12884     12930     12931
     12886     12884     12930     12932     12887     12886     12884     12888
     12887     12886     12884     12930     12888     12884     12930     12927
     12888     12884     12930     12931     12888     12884     12930     12932
     12888     12891     12892     12893     12888     12891     12892     12894
     12888     12891     12922     12920     12888     12891     12922     12923
     12888     12891     12922     12927     12889     12888     12884     12930
     12889     12888     12891     12892     12889     12888     12891     12922
     12890     12888     12884     12930     12890     12888     12891     12892
     12890     12888     12891     12922     12891     12888     12884     12930
     12891     12892     12894     12895     12891     12892     12894     12896
     12891     12892     12894     12897     12891     12922     12920     12897
     12891     12922     12920     12917     12891     12922     12920     12921
     12891     12922     12923     12924     12891     12922     12923     12925
     12891     12922     12923     12926     12891     12922     12927     12928
     12891     12922     12927     12929     12891     12922     12927     12930
     12892     12891     12922     12920     12892     12891     12922     12923
     12892     12891     12922     12927     12892     12894     12897     12898
     12892     12894     12897     12899     12892     12894     12897     12920
     12893     12892     12891     12922     12893     12892     12894     12895
     12893     12892     12894     12896     12893     12892     12894     12897
     12894     12892     12891     12922     12894     12897     12899     12900
     12894     12897     12899     12901     12894     12897     12899     12909
     12894     12897     12920     12917     12894     12897     12920     12921
     12894     12897     12920     12922     12895     12894     12897     12898
     12895     12894     12897     12899     12895     12894     12897     12920
     12896     12894     12897     12898     12896     12894     12897     12899
     12896     12894     12897     12920     12897     12899     12901     12902
     12897     12899     12901     12903     12897     12899     12901     12904
     12897     12899     12909     12907     12897     12899     12909     12910
     12897     12899     12909     12914     12897     12920     12917     12914
     12897     12920     12917     12918     12897     12920     12917     12919
     12897     12920     12922     12923     12897     12920     12922     12927
     12898     12897     12899     12900     12898     12897     12899     12901
     12898     12897     12899     12909     12898     12897     12920     12917
     12898     12897     12920     12921     12898     12897     12920     12922
     12899     12897     12920     12917     12899     12897     12920     12921
     12899     12897     12920     12922     12899     12901     12904     12905
     12899     12901     12904     12906     12899     12901     12904     12907
     12899     12909     12907     12904     12899     12909     12907     12908
     12899     12909     12907     12933     12899     12909     12910     12911
     12899     12909     12910     12912     12899     12909     12910     12913
     12899     12909     12914     12915     12899     12909     12914     12916
     12899     12909     12914     12917     12900     12899     12897     12920
     12900     12899     12901     12902     12900     12899     12901     12903
     12900     12899     12901     12904     12900     12899     12909     12907
     12900     12899     12909     12910     12900     12899     12909     12914
     12901     12899     12897     12920     12901     12899     12909     12907
     12901     12899     12909     12910     12901     12899     12909     12914
     12901     12904     12907     12908     12901     12904     12907     12909
     12901     12904     12907     12933     12902     12901     12899     12909
     12902     12901     12904     12905     12902     12901     12904     12906
     12902     12901     12904     12907     12903     12901     12899     12909
     12903     12901     12904     12905     12903     12901     12904     12906
     12903     12901     12904     12907     12904     12901     12899     12909
     12904     12907     12909     12910     12904     12907     12909     12914
     12904     12907     12933     12934     12904     12907     12933     12935
     12904     12907     12933     12939     12905     12904     12907     12908
     12905     12904     12907     12909     12905     12904     12907     12933
     12906     12904     12907     12908     12906     12904     12907     12909
     12906     12904     12907     12933     12907     12909     12910     12911
     12907     12909     12910     12912     12907     12909     12910     12913
     12907     12909     12914     12915     12907     12909     12914     12916
     12907     12909     12914     12917     12907     12933     12935     12936
     12907     12933     12935     12937     12907     12933     12935     12938
     12907     12933     12939     12940     12907     12933     12939     12941
     12907     12933     12939     12942     12908     12907     12909     12910
     12908     12907     12909     12914     12908     12907     12933     12934
     12908     12907     12933     12935     12908     12907     12933     12939
     12909     12899     12897     12920     12909     12907     12933     12934
     12909     12907     12933     12935     12909     12907     12933     12939
     12909     12914     12917     12918     12909     12914     12917     12919
     12909     12914     12917     12920     12910     12909     12907     12933
     12910     12909     12914     12915     12910     12909     12914     12916
     12910     12909     12914     12917     12911     12910     12909     12914
     12912     12910     12909     12914     12913     12910     12909     12914
     12914     12909     12907     12933     12914     12917     12920     12921
     12914     12917     12920     12922     12915     12914     12917     12918
     12915     12914     12917     12919     12915     12914     12917     12920
     12916     12914     12917     12918     12916     12914     12917     12919
     12916     12914     12917     12920     12917     12920     12922     12923
     12917     12920     12922     12927     12918     12917     12920     12921
     12918     12917     12920     12922     12919     12917     12920     12921
     12919     12917     12920     12922     12920     12922     12923     12924
     12920     12922     12923     12925     12920     12922     12923     12926
     12920     12922     12927     12928     12920     12922     12927     12929
     12920     12922     12927     12930     12921     12920     12922     12923
     12921     12920     12922     12927     12922     12927     12930     12931
     12922     12927     12930     12932     12923     12922     12927     12928
     12923     12922     12927     12929     12923     12922     12927     12930
     12924     12923     12922     12927     12925     12923     12922     12927
     12926     12923     12922     12927     12928     12927     12930     12931
     12928     12927     12930     12932     12929     12927     12930     12931
     12929     12927     12930     12932     12933     12939     12942     12943
     12933     12939     12942     12944     12933     12939     12942     12945
     12934     12933     12935     12936     12934     12933     12935     12937
     12934     12933     12935     12938     12934     12933     12939     12940
     12934     12933     12939     12941     12934     12933     12939     12942
     12935     12933     12939     12940     12935     12933     12939     12941
     12935     12933     12939     12942     12936     12935     12933     12939
     12937     12935     12933     12939     12938     12935     12933     12939
     12939     12942     12945     12946     12939     12942     12945     12947
     12939     12942     12945     12948     12940     12939     12942     12943
     12940     12939     12942     12944     12940     12939     12942     12945
     12941     12939     12942     12943     12941     12939     12942     12944
     12941     12939     12942     12945     12942     12945     12948     12949
     12942     12945     12948     12950     12942     12945     12948     12954
     12943     12942     12945     12946     12943     12942     12945     12947
     12943     12942     12945     12948     12944     12942     12945     12946
     12944     12942     12945     12947     12944     12942     12945     12948
     12945     12948     12950     12951     12945     12948     12950     12952
     12945     12948     12950     12953     12945     12948     12954     12955
     12945     12948     12954     12956     12945     12948     12954     12957
     12946     12945     12948     12949     12946     12945     12948     12950
     12946     12945     12948     12954     12947     12945     12948     12949
     12947     12945     12948     12950     12947     12945     12948     12954
     12949     12948     12950     12951     12949     12948     12950     12952
     12949     12948     12950     12953     12949     12948     12954     12955
     12949     12948     12954     12956     12949     12948     12954     12957
     12950     12948     12954     12955     12950     12948     12954     12956
     12950     12948     12954     12957     12951     12950     12948     12954
     12952     12950     12948     12954     12953     12950     12948     12954
     12958     12962     12965     12966     12958     12962     12965     12996
     12958     13004     13001     12996     12958     13004     13001     13002
     12958     13004     13001     13003     12959     12958     12960     12961
     12959     12958     12962     12963     12959     12958     12962     12964
     12959     12958     12962     12965     12959     12958     13004     13001
     12959     12958     13004     13005     12959     12958     13004     13006
     12960     12958     12962     12963     12960     12958     12962     12964
     12960     12958     12962     12965     12960     12958     13004     13001
     12960     12958     13004     13005     12960     12958     13004     13006
     12961     12960     12958     12962     12961     12960     12958     13004
     12962     12958     13004     13001     12962     12958     13004     13005
     12962     12958     13004     13006     12962     12965     12966     12967
     12962     12965     12966     12968     12962     12965     12996     12994
     12962     12965     12996     12997     12962     12965     12996     13001
     12963     12962     12958     13004     12963     12962     12965     12966
     12963     12962     12965     12996     12964     12962     12958     13004
     12964     12962     12965     12966     12964     12962     12965     12996
     12965     12962     12958     13004     12965     12966     12968     12969
     12965     12966     12968     12970     12965     12966     12968     12971
     12965     12996     12994     12971     12965     12996     12994     12991
     12965     12996     12994     12995     12965     12996     12997     12998
     12965     12996     12997     12999     12965     12996     12997     13000
     12965     12996     13001     13002     12965     12996     13001     13003
     12965     12996     13001     13004     12966     12965     12996     12994
     12966     12965     12996     12997     12966     12965     12996     13001
     12966     12968     12971     12972     12966     12968     12971     12973
     12966     12968     12971     12994     12967     12966     12965     12996
     12967     12966     12968     12969     12967     12966     12968     12970
     12967     12966     12968     12971     12968     12966     12965     12996
     12968     12971     12973     12974     12968     12971     12973     12975
     12968     12971     12973     12983     12968     12971     12994     12991
     12968     12971     12994     12995     12968     12971     12994     12996
     12969     12968     12971     12972     12969     12968     12971     12973
     12969     12968     12971     12994     12970     12968     12971     12972
     12970     12968     12971     12973     12970     12968     12971     12994
     12971     12973     12975     12976     12971     12973     12975     12977
     12971     12973     12975     12978     12971     12973     12983     12981
     12971     12973     12983     12984     12971     12973     12983     12988
     12971     12994     12991     12988     12971     12994     12991     12992
     12971     12994     12991     12993     12971     12994     12996     12997
     12971     12994     12996     13001     12972     12971     12973     12974
     12972     12971     12973     12975     12972     12971     12973     12983
     12972     12971     12994     12991     12972     12971     12994     12995
     12972     12971     12994     12996     12973     12971     12994     12991
     12973     12971     12994     12995     12973     12971     12994     12996
     12973     12975     12978     12979     12973     12975     12978     12980
     12973     12975     12978     12981     12973     12983     12981     12978
     12973     12983     12981     12982     12973     12983     12981     13007
     12973     12983     12984     12985     12973     12983     12984     12986
     12973     12983     12984     12987     12973     12983     12988     12989
     12973     12983     12988     12990     12973     12983     12988     12991
     12974     12973     12971     12994     12974     12973     12975     12976
     12974     12973     12975     12977     12974     12973     12975     12978
     12974     12973     12983     12981     12974     12973     12983     12984
     12974     12973     12983     12988     12975     12973     12971     12994
     12975     12973     12983     12981     12975     12973     12983     12984
     12975     12973     12983     12988     12975     12978     12981     12982
     12975     12978     12981     12983     12975     12978     12981     13007
     12976     12975     12973     12983     12976     12975     12978     12979
     12976     12975     12978     12980     12976     12975     12978     12981
     12977     12975     12973     12983     12977     12975     12978     12979
     12977     12975     12978     12980     12977     12975     12978     12981
     12978     12975     12973     12983     12978     12981     12983     12984
     12978     12981     12983     12988     12978     12981     13007     13008
     12978     12981     13007     13009     12978     12981     13007     13013
     12979     12978     12981     12982     12979     12978     12981     12983
     12979     12978     12981     13007     12980     12978     12981     12982
     12980     12978     12981     12983     12980     12978     12981     13007
     12981     12983     12984     12985     12981     12983     12984     12986
     12981     12983     12984     12987     12981     12983     12988     12989
     12981     12983     12988     12990     12981     12983     12988     12991
     12981     13007     13009     13010     12981     13007     13009     13011
     12981     13007     13009     13012     12981     13007     13013     13014
     12981     13007     13013     13015     12981     13007     13013     13016
     12982     12981     12983     12984     12982     12981     12983     12988
     12982     12981     13007     13008     12982     12981     13007     13009
     12982     12981     13007     13013     12983     12973     12971     12994
     12983     12981     13007     13008     12983     12981     13007     13009
     12983     12981     13007     13013     12983     12988     12991     12992
     12983     12988     12991     12993     12983     12988     12991     12994
     12984     12983     12981     13007     12984     12983     12988     12989
     12984     12983     12988     12990     12984     12983     12988     12991
     12985     12984     12983     12988     12986     12984     12983     12988
     12987     12984     12983     12988     12988     12983     12981     13007
     12988     12991     12994     12995     12988     12991     12994     12996
     12989     12988     12991     12992     12989     12988     12991     12993
     12989     12988     12991     12994     12990     12988     12991     12992
     12990     12988     12991     12993     12990     12988     12991     12994
     12991     12994     12996     12997     12991     12994     12996     13001
     12992     12991     12994     12995     12992     12991     12994     12996
     12993     12991     12994     12995     12993     12991     12994     12996
     12994     12996     12997     12998     12994     12996     12997     12999
     12994     12996     12997     13000     12994     12996     13001     13002
     12994     12996     13001     13003     12994     12996     13001     13004
     12995     12994     12996     12997     12995     12994     12996     13001
     12996     13001     13004     13005     12996     13001     13004     13006
     12997     12996     13001     13002     12997     12996     13001     13003
     12997     12996     13001     13004     12998     12997     12996     13001
     12999     12997     12996     13001     13000     12997     12996     13001
     13002     13001     13004     13005     13002     13001     13004     13006
     13003     13001     13004     13005     13003     13001     13004     13006
     13007     13013     13016     13017     13007     13013     13016     13018
     13007     13013     13016     13019     13008     13007     13009     13010
     13008     13007     13009     13011     13008     13007     13009     13012
     13008     13007     13013     13014     13008     13007     13013     13015
     13008     13007     13013     13016     13009     13007     13013     13014
     13009     13007     13013     13015     13009     13007     13013     13016
     13010     13009     13007     13013     13011     13009     13007     13013
     13012     13009     13007     13013     13013     13016     13019     13020
     13013     13016     13019     13021     13013     13016     13019     13022
     13014     13013     13016     13017     13014     13013     13016     13018
     13014     13013     13016     13019     13015     13013     13016     13017
     13015     13013     13016     13018     13015     13013     13016     13019
     13016     13019     13022     13023     13016     13019     13022     13024
     13016     13019     13022     13028     13017     13016     13019     13020
     13017     13016     13019     13021     13017     13016     13019     13022
     13018     13016     13019     13020     13018     13016     13019     13021
     13018     13016     13019     13022     13019     13022     13024     13025
     13019     13022     13024     13026     13019     13022     13024     13027
     13019     13022     13028     13029     13019     13022     13028     13030
     13019     13022     13028     13031     13020     13019     13022     13023
     13020     13019     13022     13024     13020     13019     13022     13028
     13021     13019     13022     13023     13021     13019     13022     13024
     13021     13019     13022     13028     13023     13022     13024     13025
     13023     13022     13024     13026     13023     13022     13024     13027
     13023     13022     13028     13029     13023     13022     13028     13030
     13023     13022     13028     13031     13024     13022     13028     13029
     13024     13022     13028     13030     13024     13022     13028     13031
     13025     13024     13022     13028     13026     13024     13022     13028
     13027     13024     13022     13028     13032     13036     13039     13040
     13032     13036     13039     13041     13032     13036     13039     13045
     13033     13032     13036     13037     13033     13032     13036     13038
     13033     13032     13036     13039     13034     13032     13036     13037
     13034     13032     13036     13038     13034     13032     13036     13039
     13035     13032     13036     13037     13035     13032     13036     13038
     13035     13032     13036     13039     13036     13039     13045     13042
     13037     13036     13039     13040     13037     13036     13039     13041
     13037     13036     13039     13045     13038     13036     13039     13040
     13038     13036     13039     13041     13038     13036     13039     13045
     13039     13045     13042     13043     13039     13045     13042     13044
     13039     13045     13042     13046     13040     13039     13045     13042
     13041     13039     13045     13042     13042     13046     13047     13048
     13042     13046     13047     13049     13042     13046     13047     13050
     13043     13042     13046     13047     13044     13042     13046     13047
     13045     13042     13046     13047     13046     13047     13050     13051
     13046     13047     13050     13052     13046     13047     13050     13058
     13047     13050     13052     13053     13047     13050     13058     13059
     13047     13050     13058     13060     13047     13050     13058     13061
     13048     13047     13050     13051     13048     13047     13050     13052
     13048     13047     13050     13058     13049     13047     13050     13051
     13049     13047     13050     13052     13049     13047     13050     13058
     13050     13052     13053     13054     13050     13052     13053     13055
     13050     13058     13061     13062     13051     13050     13052     13053
     13051     13050     13058     13059     13051     13050     13058     13060
     13051     13050     13058     13061     13052     13050     13058     13059
     13052     13050     13058     13060     13052     13050     13058     13061
     13052     13053     13055     13056     13052     13053     13055     13057
     13052     13053     13055     13067     13053     13052     13050     13058
     13053     13055     13067     13068     13053     13055     13067     13069
     13053     13055     13067     13070     13054     13053     13055     13056
     13054     13053     13055     13057     13054     13053     13055     13067
     13055     13067     13070     13071     13055     13067     13070     13072
     13055     13067     13070     13073     13056     13055     13067     13068
     13056     13055     13067     13069     13056     13055     13067     13070
     13057     13055     13067     13068     13057     13055     13067     13069
     13057     13055     13067     13070     13058     13061     13062     13063
     13058     13061     13062     13064     13059     13058     13061     13062
     13060     13058     13061     13062     13061     13062     13064     13065
     13061     13062     13064     13066     13061     13062     13064     13114
     13062     13064     13114     13115     13062     13064     13114     13116
     13062     13064     13114     13117     13063     13062     13064     13065
     13063     13062     13064     13066     13063     13062     13064     13114
     13064     13114     13117     13118     13064     13114     13117     13119
     13064     13114     13117     13120     13065     13064     13114     13115
     13065     13064     13114     13116     13065     13064     13114     13117
     13066     13064     13114     13115     13066     13064     13114     13116
     13066     13064     13114     13117     13067     13070     13073     13074
     13067     13070     13073     13075     13068     13067     13070     13071
     13068     13067     13070     13072     13068     13067     13070     13073
     13069     13067     13070     13071     13069     13067     13070     13072
     13069     13067     13070     13073     13070     13073     13075     13076
     13070     13073     13075     13077     13071     13070     13073     13074
     13071     13070     13073     13075     13072     13070     13073     13074
     13072     13070     13073     13075     13073     13075     13077     13078
     13073     13075     13077     13079     13073     13075     13077     13080
     13074     13073     13075     13076     13074     13073     13075     13077
     13075     13077     13080     13081     13075     13077     13080     13082
     13076     13075     13077     13078     13076     13075     13077     13079
     13076     13075     13077     13080     13077     13080     13082     13083
     13077     13080     13082     13084     13078     13077     13080     13081
     13078     13077     13080     13082     13079     13077     13080     13081
     13079     13077     13080     13082     13080     13082     13084     13085
     13080     13082     13084     13086     13080     13082     13084     13087
     13081     13080     13082     13083     13081     13080     13082     13084
     13082     13084     13087     13088     13082     13084     13087     13089
     13083     13082     13084     13085     13083     13082     13084     13086
     13083     13082     13084     13087     13084     13087     13089     13090
     13084     13087     13089     13091     13085     13084     13087     13088
     13085     13084     13087     13089     13086     13084     13087     13088
     13086     13084     13087     13089     13087     13089     13091     13092
     13087     13089     13091     13093     13087     13089     13091     13094
     13088     13087     13089     13090     13088     13087     13089     13091
     13089     13091     13094     13095     13089     13091     13094     13096
     13090     13089     13091     13092     13090     13089     13091     13093
     13090     13089     13091     13094     13091     13094     13096     13097
     13091     13094     13096     13098     13092     13091     13094     13095
     13092     13091     13094     13096     13093     13091     13094     13095
     13093     13091     13094     13096     13094     13096     13098     13099
     13094     13096     13098     13100     13094     13096     13098     13101
     13095     13094     13096     13097     13095     13094     13096     13098
     13096     13098     13101     13102     13096     13098     13101     13103
     13096     13098     13101     13104     13097     13096     13098     13099
     13097     13096     13098     13100     13097     13096     13098     13101
     13098     13101     13104     13105     13098     13101     13104     13106
     13098     13101     13104     13107     13099     13098     13101     13102
     13099     13098     13101     13103     13099     13098     13101     13104
     13100     13098     13101     13102     13100     13098     13101     13103
     13100     13098     13101     13104     13101     13104     13107     13108
     13101     13104     13107     13109     13101     13104     13107     13110
     13102     13101     13104     13105     13102     13101     13104     13106
     13102     13101     13104     13107     13103     13101     13104     13105
     13103     13101     13104     13106     13103     13101     13104     13107
     13104     13107     13110     13111     13104     13107     13110     13112
     13104     13107     13110     13113     13105     13104     13107     13108
     13105     13104     13107     13109     13105     13104     13107     13110
     13106     13104     13107     13108     13106     13104     13107     13109
     13106     13104     13107     13110     13108     13107     13110     13111
     13108     13107     13110     13112     13108     13107     13110     13113
     13109     13107     13110     13111     13109     13107     13110     13112
     13109     13107     13110     13113     13114     13117     13120     13121
     13114     13117     13120     13122     13114     13117     13120     13123
     13115     13114     13117     13118     13115     13114     13117     13119
     13115     13114     13117     13120     13116     13114     13117     13118
     13116     13114     13117     13119     13116     13114     13117     13120
     13117     13120     13123     13124     13117     13120     13123     13125
     13117     13120     13123     13126     13118     13117     13120     13121
     13118     13117     13120     13122     13118     13117     13120     13123
     13119     13117     13120     13121     13119     13117     13120     13122
     13119     13117     13120     13123     13120     13123     13126     13127
     13120     13123     13126     13128     13120     13123     13126     13129
     13121     13120     13123     13124     13121     13120     13123     13125
     13121     13120     13123     13126     13122     13120     13123     13124
     13122     13120     13123     13125     13122     13120     13123     13126
     13123     13126     13129     13130     13123     13126     13129     13131
     13123     13126     13129     13132     13124     13123     13126     13127
     13124     13123     13126     13128     13124     13123     13126     13129
     13125     13123     13126     13127     13125     13123     13126     13128
     13125     13123     13126     13129     13126     13129     13132     13133
     13126     13129     13132     13134     13126     13129     13132     13135
     13127     13126     13129     13130     13127     13126     13129     13131
     13127     13126     13129     13132     13128     13126     13129     13130
     13128     13126     13129     13131     13128     13126     13129     13132
     13129     13132     13135     13136     13129     13132     13135     13137
     13129     13132     13135     13138     13130     13129     13132     13133
     13130     13129     13132     13134     13130     13129     13132     13135
     13131     13129     13132     13133     13131     13129     13132     13134
     13131     13129     13132     13135     13132     13135     13138     13139
     13132     13135     13138     13140     13132     13135     13138     13141
     13133     13132     13135     13136     13133     13132     13135     13137
     13133     13132     13135     13138     13134     13132     13135     13136
     13134     13132     13135     13137     13134     13132     13135     13138
     13135     13138     13141     13142     13135     13138     13141     13143
     13135     13138     13141     13144     13136     13135     13138     13139
     13136     13135     13138     13140     13136     13135     13138     13141
     13137     13135     13138     13139     13137     13135     13138     13140
     13137     13135     13138     13141     13138     13141     13144     13145
     13138     13141     13144     13146     13138     13141     13144     13147
     13139     13138     13141     13142     13139     13138     13141     13143
     13139     13138     13141     13144     13140     13138     13141     13142
     13140     13138     13141     13143     13140     13138     13141     13144
     13141     13144     13147     13148     13141     13144     13147     13149
     13141     13144     13147     13150     13142     13141     13144     13145
     13142     13141     13144     13146     13142     13141     13144     13147
     13143     13141     13144     13145     13143     13141     13144     13146
     13143     13141     13144     13147     13144     13147     13150     13151
     13144     13147     13150     13152     13144     13147     13150     13153
     13145     13144     13147     13148     13145     13144     13147     13149
     13145     13144     13147     13150     13146     13144     13147     13148
     13146     13144     13147     13149     13146     13144     13147     13150
     13147     13150     13153     13154     13147     13150     13153     13155
     13147     13150     13153     13156     13148     13147     13150     13151
     13148     13147     13150     13152     13148     13147     13150     13153
     13149     13147     13150     13151     13149     13147     13150     13152
     13149     13147     13150     13153     13150     13153     13156     13157
     13150     13153     13156     13158     13150     13153     13156     13159
     13151     13150     13153     13154     13151     13150     13153     13155
     13151     13150     13153     13156     13152     13150     13153     13154
     13152     13150     13153     13155     13152     13150     13153     13156
     13153     13156     13159     13160     13153     13156     13159     13161
     13153     13156     13159     13162     13154     13153     13156     13157
     13154     13153     13156     13158     13154     13153     13156     13159
     13155     13153     13156     13157     13155     13153     13156     13158
     13155     13153     13156     13159     13157     13156     13159     13160
     13157     13156     13159     13161     13157     13156     13159     13162
     13158     13156     13159     13160     13158     13156     13159     13161
     13158     13156     13159     13162     13163     13176     13179     13180
     13163     13176     13179     13181     13163     13176     13179     13186
     13164     13163     13168     13169     13164     13163     13168     13170
     13164     13163     13168     13171     13164     13163     13172     13173
     13164     13163     13172     13174     13164     13163     13172     13175
     13164     13163     13176     13177     13164     13163     13176     13178
     13164     13163     13176     13179     13165     13164     13163     13168
     13165     13164     13163     13172     13165     13164     13163     13176
     13166     13164     13163     13168     13166     13164     13163     13172
     13166     13164     13163     13176     13167     13164     13163     13168
     13167     13164     13163     13172     13167     13164     13163     13176
     13168     13163     13172     13173     13168     13163     13172     13174
     13168     13163     13172     13175     13168     13163     13176     13177
     13168     13163     13176     13178     13168     13163     13176     13179
     13169     13168     13163     13172     13169     13168     13163     13176
     13170     13168     13163     13172     13170     13168     13163     13176
     13171     13168     13163     13172     13171     13168     13163     13176
     13172     13163     13176     13177     13172     13163     13176     13178
     13172     13163     13176     13179     13173     13172     13163     13176
     13174     13172     13163     13176     13175     13172     13163     13176
     13176     13179     13186     13182     13177     13176     13179     13180
     13177     13176     13179     13181     13177     13176     13179     13186
     13178     13176     13179     13180     13178     13176     13179     13181
     13178     13176     13179     13186     13179     13186     13182     13183
     13179     13186     13182     13184     13179     13186     13182     13185
     13180     13179     13186     13182     13181     13179     13186     13182
     13182     13185     13187     13188     13182     13185     13187     13189
     13182     13185     13187     13192     13183     13182     13185     13187
     13184     13182     13185     13187     13185     13187     13192     13190
     13185     13187     13192     13193     13185     13187     13192     13194
     13186     13182     13185     13187     13187     13192     13190     13191
     13187     13192     13190     13242     13187     13192     13194     13195
     13187     13192     13194     13196     13187     13192     13194     13198
     13188     13187     13192     13190     13188     13187     13192     13193
     13188     13187     13192     13194     13189     13187     13192     13190
     13189     13187     13192     13193     13189     13187     13192     13194
     13190     13192     13194     13195     13190     13192     13194     13196
     13190     13192     13194     13198     13190     13242     13244     13245
     13190     13242     13244     13246     13190     13242     13244     13247
     13191     13190     13192     13193     13191     13190     13192     13194
     13191     13190     13242     13243     13191     13190     13242     13244
     13192     13190     13242     13243     13192     13190     13242     13244
     13192     13194     13196     13197     13192     13194     13198     13199
     13192     13194     13198     13200     13193     13192     13190     13242
     13193     13192     13194     13195     13193     13192     13194     13196
     13193     13192     13194     13198     13194     13192     13190     13242
     13194     13198     13200     13201     13194     13198     13200     13202
     13195     13194     13196     13197     13195     13194     13198     13199
     13195     13194     13198     13200     13196     13194     13198     13199
     13196     13194     13198     13200     13197     13196     13194     13198
     13198     13200     13202     13203     13198     13200     13202     13204
     13198     13200     13202     13205     13199     13198     13200     13201
     13199     13198     13200     13202     13200     13202     13205     13206
     13200     13202     13205     13207     13200     13202     13205     13208
     13201     13200     13202     13203     13201     13200     13202     13204
     13201     13200     13202     13205     13202     13205     13208     13209
     13202     13205     13208     13210     13202     13205     13208     13211
     13203     13202     13205     13206     13203     13202     13205     13207
     13203     13202     13205     13208     13204     13202     13205     13206
     13204     13202     13205     13207     13204     13202     13205     13208
     13205     13208     13211     13212     13205     13208     13211     13213
     13205     13208     13211     13214     13206     13205     13208     13209
     13206     13205     13208     13210     13206     13205     13208     13211
     13207     13205     13208     13209     13207     13205     13208     13210
     13207     13205     13208     13211     13208     13211     13214     13215
     13208     13211     13214     13216     13208     13211     13214     13217
     13209     13208     13211     13212     13209     13208     13211     13213
     13209     13208     13211     13214     13210     13208     13211     13212
     13210     13208     13211     13213     13210     13208     13211     13214
     13211     13214     13217     13218     13211     13214     13217     13219
     13211     13214     13217     13220     13212     13211     13214     13215
     13212     13211     13214     13216     13212     13211     13214     13217
     13213     13211     13214     13215     13213     13211     13214     13216
     13213     13211     13214     13217     13214     13217     13220     13221
     13214     13217     13220     13222     13214     13217     13220     13223
     13215     13214     13217     13218     13215     13214     13217     13219
     13215     13214     13217     13220     13216     13214     13217     13218
     13216     13214     13217     13219     13216     13214     13217     13220
     13217     13220     13223     13224     13217     13220     13223     13225
     13217     13220     13223     13226     13218     13217     13220     13221
     13218     13217     13220     13222     13218     13217     13220     13223
     13219     13217     13220     13221     13219     13217     13220     13222
     13219     13217     13220     13223     13220     13223     13226     13227
     13220     13223     13226     13228     13220     13223     13226     13229
     13221     13220     13223     13224     13221     13220     13223     13225
     13221     13220     13223     13226     13222     13220     13223     13224
     13222     13220     13223     13225     13222     13220     13223     13226
     13223     13226     13229     13230     13223     13226     13229     13231
     13223     13226     13229     13232     13224     13223     13226     13227
     13224     13223     13226     13228     13224     13223     13226     13229
     13225     13223     13226     13227     13225     13223     13226     13228
     13225     13223     13226     13229     13226     13229     13232     13233
     13226     13229     13232     13234     13226     13229     13232     13235
     13227     13226     13229     13230     13227     13226     13229     13231
     13227     13226     13229     13232     13228     13226     13229     13230
     13228     13226     13229     13231     13228     13226     13229     13232
     13229     13232     13235     13236     13229     13232     13235     13237
     13229     13232     13235     13238     13230     13229     13232     13233
     13230     13229     13232     13234     13230     13229     13232     13235
     13231     13229     13232     13233     13231     13229     13232     13234
     13231     13229     13232     13235     13232     13235     13238     13239
     13232     13235     13238     13240     13232     13235     13238     13241
     13233     13232     13235     13236     13233     13232     13235     13237
     13233     13232     13235     13238     13234     13232     13235     13236
     13234     13232     13235     13237     13234     13232     13235     13238
     13236     13235     13238     13239     13236     13235     13238     13240
     13236     13235     13238     13241     13237     13235     13238     13239
     13237     13235     13238     13240     13237     13235     13238     13241
     13242     13244     13247     13248     13242     13244     13247     13249
     13242     13244     13247     13250     13243     13242     13244     13245
     13243     13242     13244     13246     13243     13242     13244     13247
     13244     13247     13250     13251     13244     13247     13250     13252
     13244     13247     13250     13253     13245     13244     13247     13248
     13245     13244     13247     13249     13245     13244     13247     13250
     13246     13244     13247     13248     13246     13244     13247     13249
     13246     13244     13247     13250     13247     13250     13253     13254
     13247     13250     13253     13255     13247     13250     13253     13256
     13248     13247     13250     13251     13248     13247     13250     13252
     13248     13247     13250     13253     13249     13247     13250     13251
     13249     13247     13250     13252     13249     13247     13250     13253
     13250     13253     13256     13257     13250     13253     13256     13258
     13250     13253     13256     13259     13251     13250     13253     13254
     13251     13250     13253     13255     13251     13250     13253     13256
     13252     13250     13253     13254     13252     13250     13253     13255
     13252     13250     13253     13256     13253     13256     13259     13260
     13253     13256     13259     13261     13253     13256     13259     13262
     13254     13253     13256     13257     13254     13253     13256     13258
     13254     13253     13256     13259     13255     13253     13256     13257
     13255     13253     13256     13258     13255     13253     13256     13259
     13256     13259     13262     13263     13256     13259     13262     13264
     13256     13259     13262     13265     13257     13256     13259     13260
     13257     13256     13259     13261     13257     13256     13259     13262
     13258     13256     13259     13260     13258     13256     13259     13261
     13258     13256     13259     13262     13259     13262     13265     13266
     13259     13262     13265     13267     13260     13259     13262     13263
     13260     13259     13262     13264     13260     13259     13262     13265
     13261     13259     13262     13263     13261     13259     13262     13264
     13261     13259     13262     13265     13262     13265     13267     13268
     13262     13265     13267     13269     13263     13262     13265     13266
     13263     13262     13265     13267     13264     13262     13265     13266
     13264     13262     13265     13267     13265     13267     13269     13270
     13265     13267     13269     13271     13265     13267     13269     13272
     13266     13265     13267     13268     13266     13265     13267     13269
     13267     13269     13272     13273     13267     13269     13272     13274
     13267     13269     13272     13275     13268     13267     13269     13270
     13268     13267     13269     13271     13268     13267     13269     13272
     13269     13272     13275     13276     13269     13272     13275     13277
     13269     13272     13275     13278     13270     13269     13272     13273
     13270     13269     13272     13274     13270     13269     13272     13275
     13271     13269     13272     13273     13271     13269     13272     13274
     13271     13269     13272     13275     13272     13275     13278     13279
     13272     13275     13278     13280     13272     13275     13278     13281
     13273     13272     13275     13276     13273     13272     13275     13277
     13273     13272     13275     13278     13274     13272     13275     13276
     13274     13272     13275     13277     13274     13272     13275     13278
     13275     13278     13281     13282     13275     13278     13281     13283
     13275     13278     13281     13284     13276     13275     13278     13279
     13276     13275     13278     13280     13276     13275     13278     13281
     13277     13275     13278     13279     13277     13275     13278     13280
     13277     13275     13278     13281     13278     13281     13284     13285
     13278     13281     13284     13286     13278     13281     13284     13287
     13279     13278     13281     13282     13279     13278     13281     13283
     13279     13278     13281     13284     13280     13278     13281     13282
     13280     13278     13281     13283     13280     13278     13281     13284
     13281     13284     13287     13288     13281     13284     13287     13289
     13281     13284     13287     13290     13282     13281     13284     13285
     13282     13281     13284     13286     13282     13281     13284     13287
     13283     13281     13284     13285     13283     13281     13284     13286
     13283     13281     13284     13287     13284     13287     13290     13291
     13284     13287     13290     13292     13284     13287     13290     13293
     13285     13284     13287     13288     13285     13284     13287     13289
     13285     13284     13287     13290     13286     13284     13287     13288
     13286     13284     13287     13289     13286     13284     13287     13290
     13288     13287     13290     13291     13288     13287     13290     13292
     13288     13287     13290     13293     13289     13287     13290     13291
     13289     13287     13290     13292     13289     13287     13290     13293
     13294     13307     13310     13311     13294     13307     13310     13312
     13294     13307     13310     13317     13295     13294     13299     13300
     13295     13294     13299     13301     13295     13294     13299     13302
     13295     13294     13303     13304     13295     13294     13303     13305
     13295     13294     13303     13306     13295     13294     13307     13308
     13295     13294     13307     13309     13295     13294     13307     13310
     13296     13295     13294     13299     13296     13295     13294     13303
     13296     13295     13294     13307     13297     13295     13294     13299
     13297     13295     13294     13303     13297     13295     13294     13307
     13298     13295     13294     13299     13298     13295     13294     13303
     13298     13295     13294     13307     13299     13294     13303     13304
     13299     13294     13303     13305     13299     13294     13303     13306
     13299     13294     13307     13308     13299     13294     13307     13309
     13299     13294     13307     13310     13300     13299     13294     13303
     13300     13299     13294     13307     13301     13299     13294     13303
     13301     13299     13294     13307     13302     13299     13294     13303
     13302     13299     13294     13307     13303     13294     13307     13308
     13303     13294     13307     13309     13303     13294     13307     13310
     13304     13303     13294     13307     13305     13303     13294     13307
     13306     13303     13294     13307     13307     13310     13317     13313
     13308     13307     13310     13311     13308     13307     13310     13312
     13308     13307     13310     13317     13309     13307     13310     13311
     13309     13307     13310     13312     13309     13307     13310     13317
     13310     13317     13313     13314     13310     13317     13313     13315
     13310     13317     13313     13316     13311     13310     13317     13313
     13312     13310     13317     13313     13313     13316     13318     13319
     13313     13316     13318     13320     13313     13316     13318     13323
     13314     13313     13316     13318     13315     13313     13316     13318
     13316     13318     13323     13321     13316     13318     13323     13324
     13316     13318     13323     13325     13317     13313     13316     13318
     13318     13323     13321     13322     13318     13323     13321     13373
     13318     13323     13325     13326     13318     13323     13325     13327
     13318     13323     13325     13329     13319     13318     13323     13321
     13319     13318     13323     13324     13319     13318     13323     13325
     13320     13318     13323     13321     13320     13318     13323     13324
     13320     13318     13323     13325     13321     13323     13325     13326
     13321     13323     13325     13327     13321     13323     13325     13329
     13321     13373     13375     13376     13321     13373     13375     13377
     13321     13373     13375     13378     13322     13321     13323     13324
     13322     13321     13323     13325     13322     13321     13373     13374
     13322     13321     13373     13375     13323     13321     13373     13374
     13323     13321     13373     13375     13323     13325     13327     13328
     13323     13325     13329     13330     13323     13325     13329     13331
     13324     13323     13321     13373     13324     13323     13325     13326
     13324     13323     13325     13327     13324     13323     13325     13329
     13325     13323     13321     13373     13325     13329     13331     13332
     13325     13329     13331     13333     13326     13325     13327     13328
     13326     13325     13329     13330     13326     13325     13329     13331
     13327     13325     13329     13330     13327     13325     13329     13331
     13328     13327     13325     13329     13329     13331     13333     13334
     13329     13331     13333     13335     13329     13331     13333     13336
     13330     13329     13331     13332     13330     13329     13331     13333
     13331     13333     13336     13337     13331     13333     13336     13338
     13331     13333     13336     13339     13332     13331     13333     13334
     13332     13331     13333     13335     13332     13331     13333     13336
     13333     13336     13339     13340     13333     13336     13339     13341
     13333     13336     13339     13342     13334     13333     13336     13337
     13334     13333     13336     13338     13334     13333     13336     13339
     13335     13333     13336     13337     13335     13333     13336     13338
     13335     13333     13336     13339     13336     13339     13342     13343
     13336     13339     13342     13344     13336     13339     13342     13345
     13337     13336     13339     13340     13337     13336     13339     13341
     13337     13336     13339     13342     13338     13336     13339     13340
     13338     13336     13339     13341     13338     13336     13339     13342
     13339     13342     13345     13346     13339     13342     13345     13347
     13339     13342     13345     13348     13340     13339     13342     13343
     13340     13339     13342     13344     13340     13339     13342     13345
     13341     13339     13342     13343     13341     13339     13342     13344
     13341     13339     13342     13345     13342     13345     13348     13349
     13342     13345     13348     13350     13342     13345     13348     13351
     13343     13342     13345     13346     13343     13342     13345     13347
     13343     13342     13345     13348     13344     13342     13345     13346
     13344     13342     13345     13347     13344     13342     13345     13348
     13345     13348     13351     13352     13345     13348     13351     13353
     13345     13348     13351     13354     13346     13345     13348     13349
     13346     13345     13348     13350     13346     13345     13348     13351
     13347     13345     13348     13349     13347     13345     13348     13350
     13347     13345     13348     13351     13348     13351     13354     13355
     13348     13351     13354     13356     13348     13351     13354     13357
     13349     13348     13351     13352     13349     13348     13351     13353
     13349     13348     13351     13354     13350     13348     13351     13352
     13350     13348     13351     13353     13350     13348     13351     13354
     13351     13354     13357     13358     13351     13354     13357     13359
     13351     13354     13357     13360     13352     13351     13354     13355
     13352     13351     13354     13356     13352     13351     13354     13357
     13353     13351     13354     13355     13353     13351     13354     13356
     13353     13351     13354     13357     13354     13357     13360     13361
     13354     13357     13360     13362     13354     13357     13360     13363
     13355     13354     13357     13358     13355     13354     13357     13359
     13355     13354     13357     13360     13356     13354     13357     13358
     13356     13354     13357     13359     13356     13354     13357     13360
     13357     13360     13363     13364     13357     13360     13363     13365
     13357     13360     13363     13366     13358     13357     13360     13361
     13358     13357     13360     13362     13358     13357     13360     13363
     13359     13357     13360     13361     13359     13357     13360     13362
     13359     13357     13360     13363     13360     13363     13366     13367
     13360     13363     13366     13368     13360     13363     13366     13369
     13361     13360     13363     13364     13361     13360     13363     13365
     13361     13360     13363     13366     13362     13360     13363     13364
     13362     13360     13363     13365     13362     13360     13363     13366
     13363     13366     13369     13370     13363     13366     13369     13371
     13363     13366     13369     13372     13364     13363     13366     13367
     13364     13363     13366     13368     13364     13363     13366     13369
     13365     13363     13366     13367     13365     13363     13366     13368
     13365     13363     13366     13369     13367     13366     13369     13370
     13367     13366     13369     13371     13367     13366     13369     13372
     13368     13366     13369     13370     13368     13366     13369     13371
     13368     13366     13369     13372     13373     13375     13378     13379
     13373     13375     13378     13380     13373     13375     13378     13381
     13374     13373     13375     13376     13374     13373     13375     13377
     13374     13373     13375     13378     13375     13378     13381     13382
     13375     13378     13381     13383     13375     13378     13381     13384
     13376     13375     13378     13379     13376     13375     13378     13380
     13376     13375     13378     13381     13377     13375     13378     13379
     13377     13375     13378     13380     13377     13375     13378     13381
     13378     13381     13384     13385     13378     13381     13384     13386
     13378     13381     13384     13387     13379     13378     13381     13382
     13379     13378     13381     13383     13379     13378     13381     13384
     13380     13378     13381     13382     13380     13378     13381     13383
     13380     13378     13381     13384     13381     13384     13387     13388
     13381     13384     13387     13389     13381     13384     13387     13390
     13382     13381     13384     13385     13382     13381     13384     13386
     13382     13381     13384     13387     13383     13381     13384     13385
     13383     13381     13384     13386     13383     13381     13384     13387
     13384     13387     13390     13391     13384     13387     13390     13392
     13384     13387     13390     13393     13385     13384     13387     13388
     13385     13384     13387     13389     13385     13384     13387     13390
     13386     13384     13387     13388     13386     13384     13387     13389
     13386     13384     13387     13390     13387     13390     13393     13394
     13387     13390     13393     13395     13387     13390     13393     13396
     13388     13387     13390     13391     13388     13387     13390     13392
     13388     13387     13390     13393     13389     13387     13390     13391
     13389     13387     13390     13392     13389     13387     13390     13393
     13390     13393     13396     13397     13390     13393     13396     13398
     13391     13390     13393     13394     13391     13390     13393     13395
     13391     13390     13393     13396     13392     13390     13393     13394
     13392     13390     13393     13395     13392     13390     13393     13396
     13393     13396     13398     13399     13393     13396     13398     13400
     13394     13393     13396     13397     13394     13393     13396     13398
     13395     13393     13396     13397     13395     13393     13396     13398
     13396     13398     13400     13401     13396     13398     13400     13402
     13396     13398     13400     13403     13397     13396     13398     13399
     13397     13396     13398     13400     13398     13400     13403     13404
     13398     13400     13403     13405     13398     13400     13403     13406
     13399     13398     13400     13401     13399     13398     13400     13402
     13399     13398     13400     13403     13400     13403     13406     13407
     13400     13403     13406     13408     13400     13403     13406     13409
     13401     13400     13403     13404     13401     13400     13403     13405
     13401     13400     13403     13406     13402     13400     13403     13404
     13402     13400     13403     13405     13402     13400     13403     13406
     13403     13406     13409     13410     13403     13406     13409     13411
     13403     13406     13409     13412     13404     13403     13406     13407
     13404     13403     13406     13408     13404     13403     13406     13409
     13405     13403     13406     13407     13405     13403     13406     13408
     13405     13403     13406     13409     13406     13409     13412     13413
     13406     13409     13412     13414     13406     13409     13412     13415
     13407     13406     13409     13410     13407     13406     13409     13411
     13407     13406     13409     13412     13408     13406     13409     13410
     13408     13406     13409     13411     13408     13406     13409     13412
     13409     13412     13415     13416     13409     13412     13415     13417
     13409     13412     13415     13418     13410     13409     13412     13413
     13410     13409     13412     13414     13410     13409     13412     13415
     13411     13409     13412     13413     13411     13409     13412     13414
     13411     13409     13412     13415     13412     13415     13418     13419
     13412     13415     13418     13420     13412     13415     13418     13421
     13413     13412     13415     13416     13413     13412     13415     13417
     13413     13412     13415     13418     13414     13412     13415     13416
     13414     13412     13415     13417     13414     13412     13415     13418
     13415     13418     13421     13422     13415     13418     13421     13423
     13415     13418     13421     13424     13416     13415     13418     13419
     13416     13415     13418     13420     13416     13415     13418     13421
     13417     13415     13418     13419     13417     13415     13418     13420
     13417     13415     13418     13421     13419     13418     13421     13422
     13419     13418     13421     13423     13419     13418     13421     13424
     13420     13418     13421     13422     13420     13418     13421     13423
     13420     13418     13421     13424     13425     13438     13441     13442
     13425     13438     13441     13443     13425     13438     13441     13448
     13426     13425     13430     13431     13426     13425     13430     13432
     13426     13425     13430     13433     13426     13425     13434     13435
     13426     13425     13434     13436     13426     13425     13434     13437
     13426     13425     13438     13439     13426     13425     13438     13440
     13426     13425     13438     13441     13427     13426     13425     13430
     13427     13426     13425     13434     13427     13426     13425     13438
     13428     13426     13425     13430     13428     13426     13425     13434
     13428     13426     13425     13438     13429     13426     13425     13430
     13429     13426     13425     13434     13429     13426     13425     13438
     13430     13425     13434     13435     13430     13425     13434     13436
     13430     13425     13434     13437     13430     13425     13438     13439
     13430     13425     13438     13440     13430     13425     13438     13441
     13431     13430     13425     13434     13431     13430     13425     13438
     13432     13430     13425     13434     13432     13430     13425     13438
     13433     13430     13425     13434     13433     13430     13425     13438
     13434     13425     13438     13439     13434     13425     13438     13440
     13434     13425     13438     13441     13435     13434     13425     13438
     13436     13434     13425     13438     13437     13434     13425     13438
     13438     13441     13448     13444     13439     13438     13441     13442
     13439     13438     13441     13443     13439     13438     13441     13448
     13440     13438     13441     13442     13440     13438     13441     13443
     13440     13438     13441     13448     13441     13448     13444     13445
     13441     13448     13444     13446     13441     13448     13444     13447
     13442     13441     13448     13444     13443     13441     13448     13444
     13444     13447     13449     13450     13444     13447     13449     13451
     13444     13447     13449     13454     13445     13444     13447     13449
     13446     13444     13447     13449     13447     13449     13454     13452
     13447     13449     13454     13455     13447     13449     13454     13456
     13448     13444     13447     13449     13449     13454     13452     13453
     13449     13454     13452     13504     13449     13454     13456     13457
     13449     13454     13456     13458     13449     13454     13456     13460
     13450     13449     13454     13452     13450     13449     13454     13455
     13450     13449     13454     13456     13451     13449     13454     13452
     13451     13449     13454     13455     13451     13449     13454     13456
     13452     13454     13456     13457     13452     13454     13456     13458
     13452     13454     13456     13460     13452     13504     13506     13507
     13452     13504     13506     13508     13452     13504     13506     13509
     13453     13452     13454     13455     13453     13452     13454     13456
     13453     13452     13504     13505     13453     13452     13504     13506
     13454     13452     13504     13505     13454     13452     13504     13506
     13454     13456     13458     13459     13454     13456     13460     13461
     13454     13456     13460     13462     13455     13454     13452     13504
     13455     13454     13456     13457     13455     13454     13456     13458
     13455     13454     13456     13460     13456     13454     13452     13504
     13456     13460     13462     13463     13456     13460     13462     13464
     13457     13456     13458     13459     13457     13456     13460     13461
     13457     13456     13460     13462     13458     13456     13460     13461
     13458     13456     13460     13462     13459     13458     13456     13460
     13460     13462     13464     13465     13460     13462     13464     13466
     13460     13462     13464     13467     13461     13460     13462     13463
     13461     13460     13462     13464     13462     13464     13467     13468
     13462     13464     13467     13469     13462     13464     13467     13470
     13463     13462     13464     13465     13463     13462     13464     13466
     13463     13462     13464     13467     13464     13467     13470     13471
     13464     13467     13470     13472     13464     13467     13470     13473
     13465     13464     13467     13468     13465     13464     13467     13469
     13465     13464     13467     13470     13466     13464     13467     13468
     13466     13464     13467     13469     13466     13464     13467     13470
     13467     13470     13473     13474     13467     13470     13473     13475
     13467     13470     13473     13476     13468     13467     13470     13471
     13468     13467     13470     13472     13468     13467     13470     13473
     13469     13467     13470     13471     13469     13467     13470     13472
     13469     13467     13470     13473     13470     13473     13476     13477
     13470     13473     13476     13478     13470     13473     13476     13479
     13471     13470     13473     13474     13471     13470     13473     13475
     13471     13470     13473     13476     13472     13470     13473     13474
     13472     13470     13473     13475     13472     13470     13473     13476
     13473     13476     13479     13480     13473     13476     13479     13481
     13473     13476     13479     13482     13474     13473     13476     13477
     13474     13473     13476     13478     13474     13473     13476     13479
     13475     13473     13476     13477     13475     13473     13476     13478
     13475     13473     13476     13479     13476     13479     13482     13483
     13476     13479     13482     13484     13476     13479     13482     13485
     13477     13476     13479     13480     13477     13476     13479     13481
     13477     13476     13479     13482     13478     13476     13479     13480
     13478     13476     13479     13481     13478     13476     13479     13482
     13479     13482     13485     13486     13479     13482     13485     13487
     13479     13482     13485     13488     13480     13479     13482     13483
     13480     13479     13482     13484     13480     13479     13482     13485
     13481     13479     13482     13483     13481     13479     13482     13484
     13481     13479     13482     13485     13482     13485     13488     13489
     13482     13485     13488     13490     13482     13485     13488     13491
     13483     13482     13485     13486     13483     13482     13485     13487
     13483     13482     13485     13488     13484     13482     13485     13486
     13484     13482     13485     13487     13484     13482     13485     13488
     13485     13488     13491     13492     13485     13488     13491     13493
     13485     13488     13491     13494     13486     13485     13488     13489
     13486     13485     13488     13490     13486     13485     13488     13491
     13487     13485     13488     13489     13487     13485     13488     13490
     13487     13485     13488     13491     13488     13491     13494     13495
     13488     13491     13494     13496     13488     13491     13494     13497
     13489     13488     13491     13492     13489     13488     13491     13493
     13489     13488     13491     13494     13490     13488     13491     13492
     13490     13488     13491     13493     13490     13488     13491     13494
     13491     13494     13497     13498     13491     13494     13497     13499
     13491     13494     13497     13500     13492     13491     13494     13495
     13492     13491     13494     13496     13492     13491     13494     13497
     13493     13491     13494     13495     13493     13491     13494     13496
     13493     13491     13494     13497     13494     13497     13500     13501
     13494     13497     13500     13502     13494     13497     13500     13503
     13495     13494     13497     13498     13495     13494     13497     13499
     13495     13494     13497     13500     13496     13494     13497     13498
     13496     13494     13497     13499     13496     13494     13497     13500
     13498     13497     13500     13501     13498     13497     13500     13502
     13498     13497     13500     13503     13499     13497     13500     13501
     13499     13497     13500     13502     13499     13497     13500     13503
     13504     13506     13509     13510     13504     13506     13509     13511
     13504     13506     13509     13512     13505     13504     13506     13507
     13505     13504     13506     13508     13505     13504     13506     13509
     13506     13509     13512     13513     13506     13509     13512     13514
     13506     13509     13512     13515     13507     13506     13509     13510
     13507     13506     13509     13511     13507     13506     13509     13512
     13508     13506     13509     13510     13508     13506     13509     13511
     13508     13506     13509     13512     13509     13512     13515     13516
     13509     13512     13515     13517     13509     13512     13515     13518
     13510     13509     13512     13513     13510     13509     13512     13514
     13510     13509     13512     13515     13511     13509     13512     13513
     13511     13509     13512     13514     13511     13509     13512     13515
     13512     13515     13518     13519     13512     13515     13518     13520
     13512     13515     13518     13521     13513     13512     13515     13516
     13513     13512     13515     13517     13513     13512     13515     13518
     13514     13512     13515     13516     13514     13512     13515     13517
     13514     13512     13515     13518     13515     13518     13521     13522
     13515     13518     13521     13523     13515     13518     13521     13524
     13516     13515     13518     13519     13516     13515     13518     13520
     13516     13515     13518     13521     13517     13515     13518     13519
     13517     13515     13518     13520     13517     13515     13518     13521
     13518     13521     13524     13525     13518     13521     13524     13526
     13518     13521     13524     13527     13519     13518     13521     13522
     13519     13518     13521     13523     13519     13518     13521     13524
     13520     13518     13521     13522     13520     13518     13521     13523
     13520     13518     13521     13524     13521     13524     13527     13528
     13521     13524     13527     13529     13522     13521     13524     13525
     13522     13521     13524     13526     13522     13521     13524     13527
     13523     13521     13524     13525     13523     13521     13524     13526
     13523     13521     13524     13527     13524     13527     13529     13530
     13524     13527     13529     13531     13525     13524     13527     13528
     13525     13524     13527     13529     13526     13524     13527     13528
     13526     13524     13527     13529     13527     13529     13531     13532
     13527     13529     13531     13533     13527     13529     13531     13534
     13528     13527     13529     13530     13528     13527     13529     13531
     13529     13531     13534     13535     13529     13531     13534     13536
     13529     13531     13534     13537     13530     13529     13531     13532
     13530     13529     13531     13533     13530     13529     13531     13534
     13531     13534     13537     13538     13531     13534     13537     13539
     13531     13534     13537     13540     13532     13531     13534     13535
     13532     13531     13534     13536     13532     13531     13534     13537
     13533     13531     13534     13535     13533     13531     13534     13536
     13533     13531     13534     13537     13534     13537     13540     13541
     13534     13537     13540     13542     13534     13537     13540     13543
     13535     13534     13537     13538     13535     13534     13537     13539
     13535     13534     13537     13540     13536     13534     13537     13538
     13536     13534     13537     13539     13536     13534     13537     13540
     13537     13540     13543     13544     13537     13540     13543     13545
     13537     13540     13543     13546     13538     13537     13540     13541
     13538     13537     13540     13542     13538     13537     13540     13543
     13539     13537     13540     13541     13539     13537     13540     13542
     13539     13537     13540     13543     13540     13543     13546     13547
     13540     13543     13546     13548     13540     13543     13546     13549
     13541     13540     13543     13544     13541     13540     13543     13545
     13541     13540     13543     13546     13542     13540     13543     13544
     13542     13540     13543     13545     13542     13540     13543     13546
     13543     13546     13549     13550     13543     13546     13549     13551
     13543     13546     13549     13552     13544     13543     13546     13547
     13544     13543     13546     13548     13544     13543     13546     13549
     13545     13543     13546     13547     13545     13543     13546     13548
     13545     13543     13546     13549     13546     13549     13552     13553
     13546     13549     13552     13554     13546     13549     13552     13555
     13547     13546     13549     13550     13547     13546     13549     13551
     13547     13546     13549     13552     13548     13546     13549     13550
     13548     13546     13549     13551     13548     13546     13549     13552
     13550     13549     13552     13553     13550     13549     13552     13554
     13550     13549     13552     13555     13551     13549     13552     13553
     13551     13549     13552     13554     13551     13549     13552     13555
     13556     13560     13563     13564     13556     13560     13563     13594
     13556     13602     13599     13594     13556     13602     13599     13600
     13556     13602     13599     13601     13557     13556     13558     13559
     13557     13556     13560     13561     13557     13556     13560     13562
     13557     13556     13560     13563     13557     13556     13602     13599
     13557     13556     13602     13603     13557     13556     13602     13604
     13558     13556     13560     13561     13558     13556     13560     13562
     13558     13556     13560     13563     13558     13556     13602     13599
     13558     13556     13602     13603     13558     13556     13602     13604
     13559     13558     13556     13560     13559     13558     13556     13602
     13560     13556     13602     13599     13560     13556     13602     13603
     13560     13556     13602     13604     13560     13563     13564     13565
     13560     13563     13564     13566     13560     13563     13594     13592
     13560     13563     13594     13595     13560     13563     13594     13599
     13561     13560     13556     13602     13561     13560     13563     13564
     13561     13560     13563     13594     13562     13560     13556     13602
     13562     13560     13563     13564     13562     13560     13563     13594
     13563     13560     13556     13602     13563     13564     13566     13567
     13563     13564     13566     13568     13563     13564     13566     13569
     13563     13594     13592     13569     13563     13594     13592     13589
     13563     13594     13592     13593     13563     13594     13595     13596
     13563     13594     13595     13597     13563     13594     13595     13598
     13563     13594     13599     13600     13563     13594     13599     13601
     13563     13594     13599     13602     13564     13563     13594     13592
     13564     13563     13594     13595     13564     13563     13594     13599
     13564     13566     13569     13570     13564     13566     13569     13571
     13564     13566     13569     13592     13565     13564     13563     13594
     13565     13564     13566     13567     13565     13564     13566     13568
     13565     13564     13566     13569     13566     13564     13563     13594
     13566     13569     13571     13572     13566     13569     13571     13573
     13566     13569     13571     13581     13566     13569     13592     13589
     13566     13569     13592     13593     13566     13569     13592     13594
     13567     13566     13569     13570     13567     13566     13569     13571
     13567     13566     13569     13592     13568     13566     13569     13570
     13568     13566     13569     13571     13568     13566     13569     13592
     13569     13571     13573     13574     13569     13571     13573     13575
     13569     13571     13573     13576     13569     13571     13581     13579
     13569     13571     13581     13582     13569     13571     13581     13586
     13569     13592     13589     13586     13569     13592     13589     13590
     13569     13592     13589     13591     13569     13592     13594     13595
     13569     13592     13594     13599     13570     13569     13571     13572
     13570     13569     13571     13573     13570     13569     13571     13581
     13570     13569     13592     13589     13570     13569     13592     13593
     13570     13569     13592     13594     13571     13569     13592     13589
     13571     13569     13592     13593     13571     13569     13592     13594
     13571     13573     13576     13577     13571     13573     13576     13578
     13571     13573     13576     13579     13571     13581     13579     13576
     13571     13581     13579     13580     13571     13581     13579     13605
     13571     13581     13582     13583     13571     13581     13582     13584
     13571     13581     13582     13585     13571     13581     13586     13587
     13571     13581     13586     13588     13571     13581     13586     13589
     13572     13571     13569     13592     13572     13571     13573     13574
     13572     13571     13573     13575     13572     13571     13573     13576
     13572     13571     13581     13579     13572     13571     13581     13582
     13572     13571     13581     13586     13573     13571     13569     13592
     13573     13571     13581     13579     13573     13571     13581     13582
     13573     13571     13581     13586     13573     13576     13579     13580
     13573     13576     13579     13581     13573     13576     13579     13605
     13574     13573     13571     13581     13574     13573     13576     13577
     13574     13573     13576     13578     13574     13573     13576     13579
     13575     13573     13571     13581     13575     13573     13576     13577
     13575     13573     13576     13578     13575     13573     13576     13579
     13576     13573     13571     13581     13576     13579     13581     13582
     13576     13579     13581     13586     13576     13579     13605     13606
     13576     13579     13605     13607     13576     13579     13605     13611
     13577     13576     13579     13580     13577     13576     13579     13581
     13577     13576     13579     13605     13578     13576     13579     13580
     13578     13576     13579     13581     13578     13576     13579     13605
     13579     13581     13582     13583     13579     13581     13582     13584
     13579     13581     13582     13585     13579     13581     13586     13587
     13579     13581     13586     13588     13579     13581     13586     13589
     13579     13605     13607     13608     13579     13605     13607     13609
     13579     13605     13607     13610     13579     13605     13611     13612
     13579     13605     13611     13613     13579     13605     13611     13614
     13580     13579     13581     13582     13580     13579     13581     13586
     13580     13579     13605     13606     13580     13579     13605     13607
     13580     13579     13605     13611     13581     13571     13569     13592
     13581     13579     13605     13606     13581     13579     13605     13607
     13581     13579     13605     13611     13581     13586     13589     13590
     13581     13586     13589     13591     13581     13586     13589     13592
     13582     13581     13579     13605     13582     13581     13586     13587
     13582     13581     13586     13588     13582     13581     13586     13589
     13583     13582     13581     13586     13584     13582     13581     13586
     13585     13582     13581     13586     13586     13581     13579     13605
     13586     13589     13592     13593     13586     13589     13592     13594
     13587     13586     13589     13590     13587     13586     13589     13591
     13587     13586     13589     13592     13588     13586     13589     13590
     13588     13586     13589     13591     13588     13586     13589     13592
     13589     13592     13594     13595     13589     13592     13594     13599
     13590     13589     13592     13593     13590     13589     13592     13594
     13591     13589     13592     13593     13591     13589     13592     13594
     13592     13594     13595     13596     13592     13594     13595     13597
     13592     13594     13595     13598     13592     13594     13599     13600
     13592     13594     13599     13601     13592     13594     13599     13602
     13593     13592     13594     13595     13593     13592     13594     13599
     13594     13599     13602     13603     13594     13599     13602     13604
     13595     13594     13599     13600     13595     13594     13599     13601
     13595     13594     13599     13602     13596     13595     13594     13599
     13597     13595     13594     13599     13598     13595     13594     13599
     13600     13599     13602     13603     13600     13599     13602     13604
     13601     13599     13602     13603     13601     13599     13602     13604
     13605     13611     13614     13615     13605     13611     13614     13616
     13605     13611     13614     13617     13606     13605     13607     13608
     13606     13605     13607     13609     13606     13605     13607     13610
     13606     13605     13611     13612     13606     13605     13611     13613
     13606     13605     13611     13614     13607     13605     13611     13612
     13607     13605     13611     13613     13607     13605     13611     13614
     13608     13607     13605     13611     13609     13607     13605     13611
     13610     13607     13605     13611     13611     13614     13617     13618
     13611     13614     13617     13619     13611     13614     13617     13620
     13612     13611     13614     13615     13612     13611     13614     13616
     13612     13611     13614     13617     13613     13611     13614     13615
     13613     13611     13614     13616     13613     13611     13614     13617
     13614     13617     13620     13621     13614     13617     13620     13622
     13614     13617     13620     13626     13615     13614     13617     13618
     13615     13614     13617     13619     13615     13614     13617     13620
     13616     13614     13617     13618     13616     13614     13617     13619
     13616     13614     13617     13620     13617     13620     13622     13623
     13617     13620     13622     13624     13617     13620     13622     13625
     13617     13620     13626     13627     13617     13620     13626     13628
     13617     13620     13626     13629     13618     13617     13620     13621
     13618     13617     13620     13622     13618     13617     13620     13626
     13619     13617     13620     13621     13619     13617     13620     13622
     13619     13617     13620     13626     13621     13620     13622     13623
     13621     13620     13622     13624     13621     13620     13622     13625
     13621     13620     13626     13627     13621     13620     13626     13628
     13621     13620     13626     13629     13622     13620     13626     13627
     13622     13620     13626     13628     13622     13620     13626     13629
     13623     13622     13620     13626     13624     13622     13620     13626
     13625     13622     13620     13626     13630     13643     13646     13647
     13630     13643     13646     13648     13630     13643     13646     13653
     13631     13630     13635     13636     13631     13630     13635     13637
     13631     13630     13635     13638     13631     13630     13639     13640
     13631     13630     13639     13641     13631     13630     13639     13642
     13631     13630     13643     13644     13631     13630     13643     13645
     13631     13630     13643     13646     13632     13631     13630     13635
     13632     13631     13630     13639     13632     13631     13630     13643
     13633     13631     13630     13635     13633     13631     13630     13639
     13633     13631     13630     13643     13634     13631     13630     13635
     13634     13631     13630     13639     13634     13631     13630     13643
     13635     13630     13639     13640     13635     13630     13639     13641
     13635     13630     13639     13642     13635     13630     13643     13644
     13635     13630     13643     13645     13635     13630     13643     13646
     13636     13635     13630     13639     13636     13635     13630     13643
     13637     13635     13630     13639     13637     13635     13630     13643
     13638     13635     13630     13639     13638     13635     13630     13643
     13639     13630     13643     13644     13639     13630     13643     13645
     13639     13630     13643     13646     13640     13639     13630     13643
     13641     13639     13630     13643     13642     13639     13630     13643
     13643     13646     13653     13649     13644     13643     13646     13647
     13644     13643     13646     13648     13644     13643     13646     13653
     13645     13643     13646     13647     13645     13643     13646     13648
     13645     13643     13646     13653     13646     13653     13649     13650
     13646     13653     13649     13651     13646     13653     13649     13652
     13647     13646     13653     13649     13648     13646     13653     13649
     13649     13652     13654     13655     13649     13652     13654     13656
     13649     13652     13654     13659     13650     13649     13652     13654
     13651     13649     13652     13654     13652     13654     13659     13657
     13652     13654     13659     13660     13652     13654     13659     13661
     13653     13649     13652     13654     13654     13659     13657     13658
     13654     13659     13657     13709     13654     13659     13661     13662
     13654     13659     13661     13663     13654     13659     13661     13665
     13655     13654     13659     13657     13655     13654     13659     13660
     13655     13654     13659     13661     13656     13654     13659     13657
     13656     13654     13659     13660     13656     13654     13659     13661
     13657     13659     13661     13662     13657     13659     13661     13663
     13657     13659     13661     13665     13657     13709     13711     13712
     13657     13709     13711     13713     13657     13709     13711     13714
     13658     13657     13659     13660     13658     13657     13659     13661
     13658     13657     13709     13710     13658     13657     13709     13711
     13659     13657     13709     13710     13659     13657     13709     13711
     13659     13661     13663     13664     13659     13661     13665     13666
     13659     13661     13665     13667     13660     13659     13657     13709
     13660     13659     13661     13662     13660     13659     13661     13663
     13660     13659     13661     13665     13661     13659     13657     13709
     13661     13665     13667     13668     13661     13665     13667     13669
     13662     13661     13663     13664     13662     13661     13665     13666
     13662     13661     13665     13667     13663     13661     13665     13666
     13663     13661     13665     13667     13664     13663     13661     13665
     13665     13667     13669     13670     13665     13667     13669     13671
     13665     13667     13669     13672     13666     13665     13667     13668
     13666     13665     13667     13669     13667     13669     13672     13673
     13667     13669     13672     13674     13667     13669     13672     13675
     13668     13667     13669     13670     13668     13667     13669     13671
     13668     13667     13669     13672     13669     13672     13675     13676
     13669     13672     13675     13677     13669     13672     13675     13678
     13670     13669     13672     13673     13670     13669     13672     13674
     13670     13669     13672     13675     13671     13669     13672     13673
     13671     13669     13672     13674     13671     13669     13672     13675
     13672     13675     13678     13679     13672     13675     13678     13680
     13672     13675     13678     13681     13673     13672     13675     13676
     13673     13672     13675     13677     13673     13672     13675     13678
     13674     13672     13675     13676     13674     13672     13675     13677
     13674     13672     13675     13678     13675     13678     13681     13682
     13675     13678     13681     13683     13675     13678     13681     13684
     13676     13675     13678     13679     13676     13675     13678     13680
     13676     13675     13678     13681     13677     13675     13678     13679
     13677     13675     13678     13680     13677     13675     13678     13681
     13678     13681     13684     13685     13678     13681     13684     13686
     13678     13681     13684     13687     13679     13678     13681     13682
     13679     13678     13681     13683     13679     13678     13681     13684
     13680     13678     13681     13682     13680     13678     13681     13683
     13680     13678     13681     13684     13681     13684     13687     13688
     13681     13684     13687     13689     13681     13684     13687     13690
     13682     13681     13684     13685     13682     13681     13684     13686
     13682     13681     13684     13687     13683     13681     13684     13685
     13683     13681     13684     13686     13683     13681     13684     13687
     13684     13687     13690     13691     13684     13687     13690     13692
     13684     13687     13690     13693     13685     13684     13687     13688
     13685     13684     13687     13689     13685     13684     13687     13690
     13686     13684     13687     13688     13686     13684     13687     13689
     13686     13684     13687     13690     13687     13690     13693     13694
     13687     13690     13693     13695     13687     13690     13693     13696
     13688     13687     13690     13691     13688     13687     13690     13692
     13688     13687     13690     13693     13689     13687     13690     13691
     13689     13687     13690     13692     13689     13687     13690     13693
     13690     13693     13696     13697     13690     13693     13696     13698
     13690     13693     13696     13699     13691     13690     13693     13694
     13691     13690     13693     13695     13691     13690     13693     13696
     13692     13690     13693     13694     13692     13690     13693     13695
     13692     13690     13693     13696     13693     13696     13699     13700
     13693     13696     13699     13701     13693     13696     13699     13702
     13694     13693     13696     13697     13694     13693     13696     13698
     13694     13693     13696     13699     13695     13693     13696     13697
     13695     13693     13696     13698     13695     13693     13696     13699
     13696     13699     13702     13703     13696     13699     13702     13704
     13696     13699     13702     13705     13697     13696     13699     13700
     13697     13696     13699     13701     13697     13696     13699     13702
     13698     13696     13699     13700     13698     13696     13699     13701
     13698     13696     13699     13702     13699     13702     13705     13706
     13699     13702     13705     13707     13699     13702     13705     13708
     13700     13699     13702     13703     13700     13699     13702     13704
     13700     13699     13702     13705     13701     13699     13702     13703
     13701     13699     13702     13704     13701     13699     13702     13705
     13703     13702     13705     13706     13703     13702     13705     13707
     13703     13702     13705     13708     13704     13702     13705     13706
     13704     13702     13705     13707     13704     13702     13705     13708
     13709     13711     13714     13715     13709     13711     13714     13716
     13709     13711     13714     13717     13710     13709     13711     13712
     13710     13709     13711     13713     13710     13709     13711     13714
     13711     13714     13717     13718     13711     13714     13717     13719
     13711     13714     13717     13720     13712     13711     13714     13715
     13712     13711     13714     13716     13712     13711     13714     13717
     13713     13711     13714     13715     13713     13711     13714     13716
     13713     13711     13714     13717     13714     13717     13720     13721
     13714     13717     13720     13722     13714     13717     13720     13723
     13715     13714     13717     13718     13715     13714     13717     13719
     13715     13714     13717     13720     13716     13714     13717     13718
     13716     13714     13717     13719     13716     13714     13717     13720
     13717     13720     13723     13724     13717     13720     13723     13725
     13717     13720     13723     13726     13718     13717     13720     13721
     13718     13717     13720     13722     13718     13717     13720     13723
     13719     13717     13720     13721     13719     13717     13720     13722
     13719     13717     13720     13723     13720     13723     13726     13727
     13720     13723     13726     13728     13720     13723     13726     13729
     13721     13720     13723     13724     13721     13720     13723     13725
     13721     13720     13723     13726     13722     13720     13723     13724
     13722     13720     13723     13725     13722     13720     13723     13726
     13723     13726     13729     13730     13723     13726     13729     13731
     13723     13726     13729     13732     13724     13723     13726     13727
     13724     13723     13726     13728     13724     13723     13726     13729
     13725     13723     13726     13727     13725     13723     13726     13728
     13725     13723     13726     13729     13726     13729     13732     13733
     13726     13729     13732     13734     13727     13726     13729     13730
     13727     13726     13729     13731     13727     13726     13729     13732
     13728     13726     13729     13730     13728     13726     13729     13731
     13728     13726     13729     13732     13729     13732     13734     13735
     13729     13732     13734     13736     13730     13729     13732     13733
     13730     13729     13732     13734     13731     13729     13732     13733
     13731     13729     13732     13734     13732     13734     13736     13737
     13732     13734     13736     13738     13732     13734     13736     13739
     13733     13732     13734     13735     13733     13732     13734     13736
     13734     13736     13739     13740     13734     13736     13739     13741
     13734     13736     13739     13742     13735     13734     13736     13737
     13735     13734     13736     13738     13735     13734     13736     13739
     13736     13739     13742     13743     13736     13739     13742     13744
     13736     13739     13742     13745     13737     13736     13739     13740
     13737     13736     13739     13741     13737     13736     13739     13742
     13738     13736     13739     13740     13738     13736     13739     13741
     13738     13736     13739     13742     13739     13742     13745     13746
     13739     13742     13745     13747     13739     13742     13745     13748
     13740     13739     13742     13743     13740     13739     13742     13744
     13740     13739     13742     13745     13741     13739     13742     13743
     13741     13739     13742     13744     13741     13739     13742     13745
     13742     13745     13748     13749     13742     13745     13748     13750
     13742     13745     13748     13751     13743     13742     13745     13746
     13743     13742     13745     13747     13743     13742     13745     13748
     13744     13742     13745     13746     13744     13742     13745     13747
     13744     13742     13745     13748     13745     13748     13751     13752
     13745     13748     13751     13753     13745     13748     13751     13754
     13746     13745     13748     13749     13746     13745     13748     13750
     13746     13745     13748     13751     13747     13745     13748     13749
     13747     13745     13748     13750     13747     13745     13748     13751
     13748     13751     13754     13755     13748     13751     13754     13756
     13748     13751     13754     13757     13749     13748     13751     13752
     13749     13748     13751     13753     13749     13748     13751     13754
     13750     13748     13751     13752     13750     13748     13751     13753
     13750     13748     13751     13754     13751     13754     13757     13758
     13751     13754     13757     13759     13751     13754     13757     13760
     13752     13751     13754     13755     13752     13751     13754     13756
     13752     13751     13754     13757     13753     13751     13754     13755
     13753     13751     13754     13756     13753     13751     13754     13757
     13755     13754     13757     13758     13755     13754     13757     13759
     13755     13754     13757     13760     13756     13754     13757     13758
     13756     13754     13757     13759     13756     13754     13757     13760
     13761     13774     13777     13778     13761     13774     13777     13779
     13761     13774     13777     13784     13762     13761     13766     13767
     13762     13761     13766     13768     13762     13761     13766     13769
     13762     13761     13770     13771     13762     13761     13770     13772
     13762     13761     13770     13773     13762     13761     13774     13775
     13762     13761     13774     13776     13762     13761     13774     13777
     13763     13762     13761     13766     13763     13762     13761     13770
     13763     13762     13761     13774     13764     13762     13761     13766
     13764     13762     13761     13770     13764     13762     13761     13774
     13765     13762     13761     13766     13765     13762     13761     13770
     13765     13762     13761     13774     13766     13761     13770     13771
     13766     13761     13770     13772     13766     13761     13770     13773
     13766     13761     13774     13775     13766     13761     13774     13776
     13766     13761     13774     13777     13767     13766     13761     13770
     13767     13766     13761     13774     13768     13766     13761     13770
     13768     13766     13761     13774     13769     13766     13761     13770
     13769     13766     13761     13774     13770     13761     13774     13775
     13770     13761     13774     13776     13770     13761     13774     13777
     13771     13770     13761     13774     13772     13770     13761     13774
     13773     13770     13761     13774     13774     13777     13784     13780
     13775     13774     13777     13778     13775     13774     13777     13779
     13775     13774     13777     13784     13776     13774     13777     13778
     13776     13774     13777     13779     13776     13774     13777     13784
     13777     13784     13780     13781     13777     13784     13780     13782
     13777     13784     13780     13783     13778     13777     13784     13780
     13779     13777     13784     13780     13780     13783     13785     13786
     13780     13783     13785     13787     13780     13783     13785     13790
     13781     13780     13783     13785     13782     13780     13783     13785
     13783     13785     13790     13788     13783     13785     13790     13791
     13783     13785     13790     13792     13784     13780     13783     13785
     13785     13790     13788     13789     13785     13790     13788     13840
     13785     13790     13792     13793     13785     13790     13792     13794
     13785     13790     13792     13796     13786     13785     13790     13788
     13786     13785     13790     13791     13786     13785     13790     13792
     13787     13785     13790     13788     13787     13785     13790     13791
     13787     13785     13790     13792     13788     13790     13792     13793
     13788     13790     13792     13794     13788     13790     13792     13796
     13788     13840     13842     13843     13788     13840     13842     13844
     13788     13840     13842     13845     13789     13788     13790     13791
     13789     13788     13790     13792     13789     13788     13840     13841
     13789     13788     13840     13842     13790     13788     13840     13841
     13790     13788     13840     13842     13790     13792     13794     13795
     13790     13792     13796     13797     13790     13792     13796     13798
     13791     13790     13788     13840     13791     13790     13792     13793
     13791     13790     13792     13794     13791     13790     13792     13796
     13792     13790     13788     13840     13792     13796     13798     13799
     13792     13796     13798     13800     13793     13792     13794     13795
     13793     13792     13796     13797     13793     13792     13796     13798
     13794     13792     13796     13797     13794     13792     13796     13798
     13795     13794     13792     13796     13796     13798     13800     13801
     13796     13798     13800     13802     13796     13798     13800     13803
     13797     13796     13798     13799     13797     13796     13798     13800
     13798     13800     13803     13804     13798     13800     13803     13805
     13798     13800     13803     13806     13799     13798     13800     13801
     13799     13798     13800     13802     13799     13798     13800     13803
     13800     13803     13806     13807     13800     13803     13806     13808
     13800     13803     13806     13809     13801     13800     13803     13804
     13801     13800     13803     13805     13801     13800     13803     13806
     13802     13800     13803     13804     13802     13800     13803     13805
     13802     13800     13803     13806     13803     13806     13809     13810
     13803     13806     13809     13811     13803     13806     13809     13812
     13804     13803     13806     13807     13804     13803     13806     13808
     13804     13803     13806     13809     13805     13803     13806     13807
     13805     13803     13806     13808     13805     13803     13806     13809
     13806     13809     13812     13813     13806     13809     13812     13814
     13806     13809     13812     13815     13807     13806     13809     13810
     13807     13806     13809     13811     13807     13806     13809     13812
     13808     13806     13809     13810     13808     13806     13809     13811
     13808     13806     13809     13812     13809     13812     13815     13816
     13809     13812     13815     13817     13809     13812     13815     13818
     13810     13809     13812     13813     13810     13809     13812     13814
     13810     13809     13812     13815     13811     13809     13812     13813
     13811     13809     13812     13814     13811     13809     13812     13815
     13812     13815     13818     13819     13812     13815     13818     13820
     13812     13815     13818     13821     13813     13812     13815     13816
     13813     13812     13815     13817     13813     13812     13815     13818
     13814     13812     13815     13816     13814     13812     13815     13817
     13814     13812     13815     13818     13815     13818     13821     13822
     13815     13818     13821     13823     13815     13818     13821     13824
     13816     13815     13818     13819     13816     13815     13818     13820
     13816     13815     13818     13821     13817     13815     13818     13819
     13817     13815     13818     13820     13817     13815     13818     13821
     13818     13821     13824     13825     13818     13821     13824     13826
     13818     13821     13824     13827     13819     13818     13821     13822
     13819     13818     13821     13823     13819     13818     13821     13824
     13820     13818     13821     13822     13820     13818     13821     13823
     13820     13818     13821     13824     13821     13824     13827     13828
     13821     13824     13827     13829     13821     13824     13827     13830
     13822     13821     13824     13825     13822     13821     13824     13826
     13822     13821     13824     13827     13823     13821     13824     13825
     13823     13821     13824     13826     13823     13821     13824     13827
     13824     13827     13830     13831     13824     13827     13830     13832
     13824     13827     13830     13833     13825     13824     13827     13828
     13825     13824     13827     13829     13825     13824     13827     13830
     13826     13824     13827     13828     13826     13824     13827     13829
     13826     13824     13827     13830     13827     13830     13833     13834
     13827     13830     13833     13835     13827     13830     13833     13836
     13828     13827     13830     13831     13828     13827     13830     13832
     13828     13827     13830     13833     13829     13827     13830     13831
     13829     13827     13830     13832     13829     13827     13830     13833
     13830     13833     13836     13837     13830     13833     13836     13838
     13830     13833     13836     13839     13831     13830     13833     13834
     13831     13830     13833     13835     13831     13830     13833     13836
     13832     13830     13833     13834     13832     13830     13833     13835
     13832     13830     13833     13836     13834     13833     13836     13837
     13834     13833     13836     13838     13834     13833     13836     13839
     13835     13833     13836     13837     13835     13833     13836     13838
     13835     13833     13836     13839     13840     13842     13845     13846
     13840     13842     13845     13847     13840     13842     13845     13848
     13841     13840     13842     13843     13841     13840     13842     13844
     13841     13840     13842     13845     13842     13845     13848     13849
     13842     13845     13848     13850     13842     13845     13848     13851
     13843     13842     13845     13846     13843     13842     13845     13847
     13843     13842     13845     13848     13844     13842     13845     13846
     13844     13842     13845     13847     13844     13842     13845     13848
     13845     13848     13851     13852     13845     13848     13851     13853
     13845     13848     13851     13854     13846     13845     13848     13849
     13846     13845     13848     13850     13846     13845     13848     13851
     13847     13845     13848     13849     13847     13845     13848     13850
     13847     13845     13848     13851     13848     13851     13854     13855
     13848     13851     13854     13856     13848     13851     13854     13857
     13849     13848     13851     13852     13849     13848     13851     13853
     13849     13848     13851     13854     13850     13848     13851     13852
     13850     13848     13851     13853     13850     13848     13851     13854
     13851     13854     13857     13858     13851     13854     13857     13859
     13851     13854     13857     13860     13852     13851     13854     13855
     13852     13851     13854     13856     13852     13851     13854     13857
     13853     13851     13854     13855     13853     13851     13854     13856
     13853     13851     13854     13857     13854     13857     13860     13861
     13854     13857     13860     13862     13854     13857     13860     13863
     13855     13854     13857     13858     13855     13854     13857     13859
     13855     13854     13857     13860     13856     13854     13857     13858
     13856     13854     13857     13859     13856     13854     13857     13860
     13857     13860     13863     13864     13857     13860     13863     13865
     13858     13857     13860     13861     13858     13857     13860     13862
     13858     13857     13860     13863     13859     13857     13860     13861
     13859     13857     13860     13862     13859     13857     13860     13863
     13860     13863     13865     13866     13860     13863     13865     13867
     13861     13860     13863     13864     13861     13860     13863     13865
     13862     13860     13863     13864     13862     13860     13863     13865
     13863     13865     13867     13868     13863     13865     13867     13869
     13863     13865     13867     13870     13864     13863     13865     13866
     13864     13863     13865     13867     13865     13867     13870     13871
     13865     13867     13870     13872     13865     13867     13870     13873
     13866     13865     13867     13868     13866     13865     13867     13869
     13866     13865     13867     13870     13867     13870     13873     13874
     13867     13870     13873     13875     13867     13870     13873     13876
     13868     13867     13870     13871     13868     13867     13870     13872
     13868     13867     13870     13873     13869     13867     13870     13871
     13869     13867     13870     13872     13869     13867     13870     13873
     13870     13873     13876     13877     13870     13873     13876     13878
     13870     13873     13876     13879     13871     13870     13873     13874
     13871     13870     13873     13875     13871     13870     13873     13876
     13872     13870     13873     13874     13872     13870     13873     13875
     13872     13870     13873     13876     13873     13876     13879     13880
     13873     13876     13879     13881     13873     13876     13879     13882
     13874     13873     13876     13877     13874     13873     13876     13878
     13874     13873     13876     13879     13875     13873     13876     13877
     13875     13873     13876     13878     13875     13873     13876     13879
     13876     13879     13882     13883     13876     13879     13882     13884
     13876     13879     13882     13885     13877     13876     13879     13880
     13877     13876     13879     13881     13877     13876     13879     13882
     13878     13876     13879     13880     13878     13876     13879     13881
     13878     13876     13879     13882     13879     13882     13885     13886
     13879     13882     13885     13887     13879     13882     13885     13888
     13880     13879     13882     13883     13880     13879     13882     13884
     13880     13879     13882     13885     13881     13879     13882     13883
     13881     13879     13882     13884     13881     13879     13882     13885
     13882     13885     13888     13889     13882     13885     13888     13890
     13882     13885     13888     13891     13883     13882     13885     13886
     13883     13882     13885     13887     13883     13882     13885     13888
     13884     13882     13885     13886     13884     13882     13885     13887
     13884     13882     13885     13888     13886     13885     13888     13889
     13886     13885     13888     13890     13886     13885     13888     13891
     13887     13885     13888     13889     13887     13885     13888     13890
     13887     13885     13888     13891     13892     13905     13908     13909
     13892     13905     13908     13910     13892     13905     13908     13915
     13893     13892     13897     13898     13893     13892     13897     13899
     13893     13892     13897     13900     13893     13892     13901     13902
     13893     13892     13901     13903     13893     13892     13901     13904
     13893     13892     13905     13906     13893     13892     13905     13907
     13893     13892     13905     13908     13894     13893     13892     13897
     13894     13893     13892     13901     13894     13893     13892     13905
     13895     13893     13892     13897     13895     13893     13892     13901
     13895     13893     13892     13905     13896     13893     13892     13897
     13896     13893     13892     13901     13896     13893     13892     13905
     13897     13892     13901     13902     13897     13892     13901     13903
     13897     13892     13901     13904     13897     13892     13905     13906
     13897     13892     13905     13907     13897     13892     13905     13908
     13898     13897     13892     13901     13898     13897     13892     13905
     13899     13897     13892     13901     13899     13897     13892     13905
     13900     13897     13892     13901     13900     13897     13892     13905
     13901     13892     13905     13906     13901     13892     13905     13907
     13901     13892     13905     13908     13902     13901     13892     13905
     13903     13901     13892     13905     13904     13901     13892     13905
     13905     13908     13915     13911     13906     13905     13908     13909
     13906     13905     13908     13910     13906     13905     13908     13915
     13907     13905     13908     13909     13907     13905     13908     13910
     13907     13905     13908     13915     13908     13915     13911     13912
     13908     13915     13911     13913     13908     13915     13911     13914
     13909     13908     13915     13911     13910     13908     13915     13911
     13911     13914     13916     13917     13911     13914     13916     13918
     13911     13914     13916     13921     13912     13911     13914     13916
     13913     13911     13914     13916     13914     13916     13921     13919
     13914     13916     13921     13922     13914     13916     13921     13923
     13915     13911     13914     13916     13916     13921     13919     13920
     13916     13921     13919     13971     13916     13921     13923     13924
     13916     13921     13923     13925     13916     13921     13923     13927
     13917     13916     13921     13919     13917     13916     13921     13922
     13917     13916     13921     13923     13918     13916     13921     13919
     13918     13916     13921     13922     13918     13916     13921     13923
     13919     13921     13923     13924     13919     13921     13923     13925
     13919     13921     13923     13927     13919     13971     13973     13974
     13919     13971     13973     13975     13919     13971     13973     13976
     13920     13919     13921     13922     13920     13919     13921     13923
     13920     13919     13971     13972     13920     13919     13971     13973
     13921     13919     13971     13972     13921     13919     13971     13973
     13921     13923     13925     13926     13921     13923     13927     13928
     13921     13923     13927     13929     13922     13921     13919     13971
     13922     13921     13923     13924     13922     13921     13923     13925
     13922     13921     13923     13927     13923     13921     13919     13971
     13923     13927     13929     13930     13923     13927     13929     13931
     13924     13923     13925     13926     13924     13923     13927     13928
     13924     13923     13927     13929     13925     13923     13927     13928
     13925     13923     13927     13929     13926     13925     13923     13927
     13927     13929     13931     13932     13927     13929     13931     13933
     13927     13929     13931     13934     13928     13927     13929     13930
     13928     13927     13929     13931     13929     13931     13934     13935
     13929     13931     13934     13936     13929     13931     13934     13937
     13930     13929     13931     13932     13930     13929     13931     13933
     13930     13929     13931     13934     13931     13934     13937     13938
     13931     13934     13937     13939     13931     13934     13937     13940
     13932     13931     13934     13935     13932     13931     13934     13936
     13932     13931     13934     13937     13933     13931     13934     13935
     13933     13931     13934     13936     13933     13931     13934     13937
     13934     13937     13940     13941     13934     13937     13940     13942
     13934     13937     13940     13943     13935     13934     13937     13938
     13935     13934     13937     13939     13935     13934     13937     13940
     13936     13934     13937     13938     13936     13934     13937     13939
     13936     13934     13937     13940     13937     13940     13943     13944
     13937     13940     13943     13945     13937     13940     13943     13946
     13938     13937     13940     13941     13938     13937     13940     13942
     13938     13937     13940     13943     13939     13937     13940     13941
     13939     13937     13940     13942     13939     13937     13940     13943
     13940     13943     13946     13947     13940     13943     13946     13948
     13940     13943     13946     13949     13941     13940     13943     13944
     13941     13940     13943     13945     13941     13940     13943     13946
     13942     13940     13943     13944     13942     13940     13943     13945
     13942     13940     13943     13946     13943     13946     13949     13950
     13943     13946     13949     13951     13943     13946     13949     13952
     13944     13943     13946     13947     13944     13943     13946     13948
     13944     13943     13946     13949     13945     13943     13946     13947
     13945     13943     13946     13948     13945     13943     13946     13949
     13946     13949     13952     13953     13946     13949     13952     13954
     13946     13949     13952     13955     13947     13946     13949     13950
     13947     13946     13949     13951     13947     13946     13949     13952
     13948     13946     13949     13950     13948     13946     13949     13951
     13948     13946     13949     13952     13949     13952     13955     13956
     13949     13952     13955     13957     13949     13952     13955     13958
     13950     13949     13952     13953     13950     13949     13952     13954
     13950     13949     13952     13955     13951     13949     13952     13953
     13951     13949     13952     13954     13951     13949     13952     13955
     13952     13955     13958     13959     13952     13955     13958     13960
     13952     13955     13958     13961     13953     13952     13955     13956
     13953     13952     13955     13957     13953     13952     13955     13958
     13954     13952     13955     13956     13954     13952     13955     13957
     13954     13952     13955     13958     13955     13958     13961     13962
     13955     13958     13961     13963     13955     13958     13961     13964
     13956     13955     13958     13959     13956     13955     13958     13960
     13956     13955     13958     13961     13957     13955     13958     13959
     13957     13955     13958     13960     13957     13955     13958     13961
     13958     13961     13964     13965     13958     13961     13964     13966
     13958     13961     13964     13967     13959     13958     13961     13962
     13959     13958     13961     13963     13959     13958     13961     13964
     13960     13958     13961     13962     13960     13958     13961     13963
     13960     13958     13961     13964     13961     13964     13967     13968
     13961     13964     13967     13969     13961     13964     13967     13970
     13962     13961     13964     13965     13962     13961     13964     13966
     13962     13961     13964     13967     13963     13961     13964     13965
     13963     13961     13964     13966     13963     13961     13964     13967
     13965     13964     13967     13968     13965     13964     13967     13969
     13965     13964     13967     13970     13966     13964     13967     13968
     13966     13964     13967     13969     13966     13964     13967     13970
     13971     13973     13976     13977     13971     13973     13976     13978
     13971     13973     13976     13979     13972     13971     13973     13974
     13972     13971     13973     13975     13972     13971     13973     13976
     13973     13976     13979     13980     13973     13976     13979     13981
     13973     13976     13979     13982     13974     13973     13976     13977
     13974     13973     13976     13978     13974     13973     13976     13979
     13975     13973     13976     13977     13975     13973     13976     13978
     13975     13973     13976     13979     13976     13979     13982     13983
     13976     13979     13982     13984     13976     13979     13982     13985
     13977     13976     13979     13980     13977     13976     13979     13981
     13977     13976     13979     13982     13978     13976     13979     13980
     13978     13976     13979     13981     13978     13976     13979     13982
     13979     13982     13985     13986     13979     13982     13985     13987
     13979     13982     13985     13988     13980     13979     13982     13983
     13980     13979     13982     13984     13980     13979     13982     13985
     13981     13979     13982     13983     13981     13979     13982     13984
     13981     13979     13982     13985     13982     13985     13988     13989
     13982     13985     13988     13990     13982     13985     13988     13991
     13983     13982     13985     13986     13983     13982     13985     13987
     13983     13982     13985     13988     13984     13982     13985     13986
     13984     13982     13985     13987     13984     13982     13985     13988
     13985     13988     13991     13992     13985     13988     13991     13993
     13985     13988     13991     13994     13986     13985     13988     13989
     13986     13985     13988     13990     13986     13985     13988     13991
     13987     13985     13988     13989     13987     13985     13988     13990
     13987     13985     13988     13991     13988     13991     13994     13995
     13988     13991     13994     13996     13989     13988     13991     13992
     13989     13988     13991     13993     13989     13988     13991     13994
     13990     13988     13991     13992     13990     13988     13991     13993
     13990     13988     13991     13994     13991     13994     13996     13997
     13991     13994     13996     13998     13992     13991     13994     13995
     13992     13991     13994     13996     13993     13991     13994     13995
     13993     13991     13994     13996     13994     13996     13998     13999
     13994     13996     13998     14000     13994     13996     13998     14001
     13995     13994     13996     13997     13995     13994     13996     13998
     13996     13998     14001     14002     13996     13998     14001     14003
     13996     13998     14001     14004     13997     13996     13998     13999
     13997     13996     13998     14000     13997     13996     13998     14001
     13998     14001     14004     14005     13998     14001     14004     14006
     13998     14001     14004     14007     13999     13998     14001     14002
     13999     13998     14001     14003     13999     13998     14001     14004
     14000     13998     14001     14002     14000     13998     14001     14003
     14000     13998     14001     14004     14001     14004     14007     14008
     14001     14004     14007     14009     14001     14004     14007     14010
     14002     14001     14004     14005     14002     14001     14004     14006
     14002     14001     14004     14007     14003     14001     14004     14005
     14003     14001     14004     14006     14003     14001     14004     14007
     14004     14007     14010     14011     14004     14007     14010     14012
     14004     14007     14010     14013     14005     14004     14007     14008
     14005     14004     14007     14009     14005     14004     14007     14010
     14006     14004     14007     14008     14006     14004     14007     14009
     14006     14004     14007     14010     14007     14010     14013     14014
     14007     14010     14013     14015     14007     14010     14013     14016
     14008     14007     14010     14011     14008     14007     14010     14012
     14008     14007     14010     14013     14009     14007     14010     14011
     14009     14007     14010     14012     14009     14007     14010     14013
     14010     14013     14016     14017     14010     14013     14016     14018
     14010     14013     14016     14019     14011     14010     14013     14014
     14011     14010     14013     14015     14011     14010     14013     14016
     14012     14010     14013     14014     14012     14010     14013     14015
     14012     14010     14013     14016     14013     14016     14019     14020
     14013     14016     14019     14021     14013     14016     14019     14022
     14014     14013     14016     14017     14014     14013     14016     14018
     14014     14013     14016     14019     14015     14013     14016     14017
     14015     14013     14016     14018     14015     14013     14016     14019
     14017     14016     14019     14020     14017     14016     14019     14021
     14017     14016     14019     14022     14018     14016     14019     14020
     14018     14016     14019     14021     14018     14016     14019     14022
     14023     14036     14039     14040     14023     14036     14039     14041
     14023     14036     14039     14046     14024     14023     14028     14029
     14024     14023     14028     14030     14024     14023     14028     14031
     14024     14023     14032     14033     14024     14023     14032     14034
     14024     14023     14032     14035     14024     14023     14036     14037
     14024     14023     14036     14038     14024     14023     14036     14039
     14025     14024     14023     14028     14025     14024     14023     14032
     14025     14024     14023     14036     14026     14024     14023     14028
     14026     14024     14023     14032     14026     14024     14023     14036
     14027     14024     14023     14028     14027     14024     14023     14032
     14027     14024     14023     14036     14028     14023     14032     14033
     14028     14023     14032     14034     14028     14023     14032     14035
     14028     14023     14036     14037     14028     14023     14036     14038
     14028     14023     14036     14039     14029     14028     14023     14032
     14029     14028     14023     14036     14030     14028     14023     14032
     14030     14028     14023     14036     14031     14028     14023     14032
     14031     14028     14023     14036     14032     14023     14036     14037
     14032     14023     14036     14038     14032     14023     14036     14039
     14033     14032     14023     14036     14034     14032     14023     14036
     14035     14032     14023     14036     14036     14039     14046     14042
     14037     14036     14039     14040     14037     14036     14039     14041
     14037     14036     14039     14046     14038     14036     14039     14040
     14038     14036     14039     14041     14038     14036     14039     14046
     14039     14046     14042     14043     14039     14046     14042     14044
     14039     14046     14042     14045     14040     14039     14046     14042
     14041     14039     14046     14042     14042     14045     14047     14048
     14042     14045     14047     14049     14042     14045     14047     14052
     14043     14042     14045     14047     14044     14042     14045     14047
     14045     14047     14052     14050     14045     14047     14052     14053
     14045     14047     14052     14054     14046     14042     14045     14047
     14047     14052     14050     14051     14047     14052     14050     14102
     14047     14052     14054     14055     14047     14052     14054     14056
     14047     14052     14054     14058     14048     14047     14052     14050
     14048     14047     14052     14053     14048     14047     14052     14054
     14049     14047     14052     14050     14049     14047     14052     14053
     14049     14047     14052     14054     14050     14052     14054     14055
     14050     14052     14054     14056     14050     14052     14054     14058
     14050     14102     14104     14105     14050     14102     14104     14106
     14050     14102     14104     14107     14051     14050     14052     14053
     14051     14050     14052     14054     14051     14050     14102     14103
     14051     14050     14102     14104     14052     14050     14102     14103
     14052     14050     14102     14104     14052     14054     14056     14057
     14052     14054     14058     14059     14052     14054     14058     14060
     14053     14052     14050     14102     14053     14052     14054     14055
     14053     14052     14054     14056     14053     14052     14054     14058
     14054     14052     14050     14102     14054     14058     14060     14061
     14054     14058     14060     14062     14055     14054     14056     14057
     14055     14054     14058     14059     14055     14054     14058     14060
     14056     14054     14058     14059     14056     14054     14058     14060
     14057     14056     14054     14058     14058     14060     14062     14063
     14058     14060     14062     14064     14058     14060     14062     14065
     14059     14058     14060     14061     14059     14058     14060     14062
     14060     14062     14065     14066     14060     14062     14065     14067
     14060     14062     14065     14068     14061     14060     14062     14063
     14061     14060     14062     14064     14061     14060     14062     14065
     14062     14065     14068     14069     14062     14065     14068     14070
     14062     14065     14068     14071     14063     14062     14065     14066
     14063     14062     14065     14067     14063     14062     14065     14068
     14064     14062     14065     14066     14064     14062     14065     14067
     14064     14062     14065     14068     14065     14068     14071     14072
     14065     14068     14071     14073     14065     14068     14071     14074
     14066     14065     14068     14069     14066     14065     14068     14070
     14066     14065     14068     14071     14067     14065     14068     14069
     14067     14065     14068     14070     14067     14065     14068     14071
     14068     14071     14074     14075     14068     14071     14074     14076
     14068     14071     14074     14077     14069     14068     14071     14072
     14069     14068     14071     14073     14069     14068     14071     14074
     14070     14068     14071     14072     14070     14068     14071     14073
     14070     14068     14071     14074     14071     14074     14077     14078
     14071     14074     14077     14079     14071     14074     14077     14080
     14072     14071     14074     14075     14072     14071     14074     14076
     14072     14071     14074     14077     14073     14071     14074     14075
     14073     14071     14074     14076     14073     14071     14074     14077
     14074     14077     14080     14081     14074     14077     14080     14082
     14074     14077     14080     14083     14075     14074     14077     14078
     14075     14074     14077     14079     14075     14074     14077     14080
     14076     14074     14077     14078     14076     14074     14077     14079
     14076     14074     14077     14080     14077     14080     14083     14084
     14077     14080     14083     14085     14077     14080     14083     14086
     14078     14077     14080     14081     14078     14077     14080     14082
     14078     14077     14080     14083     14079     14077     14080     14081
     14079     14077     14080     14082     14079     14077     14080     14083
     14080     14083     14086     14087     14080     14083     14086     14088
     14080     14083     14086     14089     14081     14080     14083     14084
     14081     14080     14083     14085     14081     14080     14083     14086
     14082     14080     14083     14084     14082     14080     14083     14085
     14082     14080     14083     14086     14083     14086     14089     14090
     14083     14086     14089     14091     14083     14086     14089     14092
     14084     14083     14086     14087     14084     14083     14086     14088
     14084     14083     14086     14089     14085     14083     14086     14087
     14085     14083     14086     14088     14085     14083     14086     14089
     14086     14089     14092     14093     14086     14089     14092     14094
     14086     14089     14092     14095     14087     14086     14089     14090
     14087     14086     14089     14091     14087     14086     14089     14092
     14088     14086     14089     14090     14088     14086     14089     14091
     14088     14086     14089     14092     14089     14092     14095     14096
     14089     14092     14095     14097     14089     14092     14095     14098
     14090     14089     14092     14093     14090     14089     14092     14094
     14090     14089     14092     14095     14091     14089     14092     14093
     14091     14089     14092     14094     14091     14089     14092     14095
     14092     14095     14098     14099     14092     14095     14098     14100
     14092     14095     14098     14101     14093     14092     14095     14096
     14093     14092     14095     14097     14093     14092     14095     14098
     14094     14092     14095     14096     14094     14092     14095     14097
     14094     14092     14095     14098     14096     14095     14098     14099
     14096     14095     14098     14100     14096     14095     14098     14101
     14097     14095     14098     14099     14097     14095     14098     14100
     14097     14095     14098     14101     14102     14104     14107     14108
     14102     14104     14107     14109     14102     14104     14107     14110
     14103     14102     14104     14105     14103     14102     14104     14106
     14103     14102     14104     14107     14104     14107     14110     14111
     14104     14107     14110     14112     14104     14107     14110     14113
     14105     14104     14107     14108     14105     14104     14107     14109
     14105     14104     14107     14110     14106     14104     14107     14108
     14106     14104     14107     14109     14106     14104     14107     14110
     14107     14110     14113     14114     14107     14110     14113     14115
     14107     14110     14113     14116     14108     14107     14110     14111
     14108     14107     14110     14112     14108     14107     14110     14113
     14109     14107     14110     14111     14109     14107     14110     14112
     14109     14107     14110     14113     14110     14113     14116     14117
     14110     14113     14116     14118     14110     14113     14116     14119
     14111     14110     14113     14114     14111     14110     14113     14115
     14111     14110     14113     14116     14112     14110     14113     14114
     14112     14110     14113     14115     14112     14110     14113     14116
     14113     14116     14119     14120     14113     14116     14119     14121
     14113     14116     14119     14122     14114     14113     14116     14117
     14114     14113     14116     14118     14114     14113     14116     14119
     14115     14113     14116     14117     14115     14113     14116     14118
     14115     14113     14116     14119     14116     14119     14122     14123
     14116     14119     14122     14124     14116     14119     14122     14125
     14117     14116     14119     14120     14117     14116     14119     14121
     14117     14116     14119     14122     14118     14116     14119     14120
     14118     14116     14119     14121     14118     14116     14119     14122
     14119     14122     14125     14126     14119     14122     14125     14127
     14120     14119     14122     14123     14120     14119     14122     14124
     14120     14119     14122     14125     14121     14119     14122     14123
     14121     14119     14122     14124     14121     14119     14122     14125
     14122     14125     14127     14128     14122     14125     14127     14129
     14123     14122     14125     14126     14123     14122     14125     14127
     14124     14122     14125     14126     14124     14122     14125     14127
     14125     14127     14129     14130     14125     14127     14129     14131
     14125     14127     14129     14132     14126     14125     14127     14128
     14126     14125     14127     14129     14127     14129     14132     14133
     14127     14129     14132     14134     14127     14129     14132     14135
     14128     14127     14129     14130     14128     14127     14129     14131
     14128     14127     14129     14132     14129     14132     14135     14136
     14129     14132     14135     14137     14129     14132     14135     14138
     14130     14129     14132     14133     14130     14129     14132     14134
     14130     14129     14132     14135     14131     14129     14132     14133
     14131     14129     14132     14134     14131     14129     14132     14135
     14132     14135     14138     14139     14132     14135     14138     14140
     14132     14135     14138     14141     14133     14132     14135     14136
     14133     14132     14135     14137     14133     14132     14135     14138
     14134     14132     14135     14136     14134     14132     14135     14137
     14134     14132     14135     14138     14135     14138     14141     14142
     14135     14138     14141     14143     14135     14138     14141     14144
     14136     14135     14138     14139     14136     14135     14138     14140
     14136     14135     14138     14141     14137     14135     14138     14139
     14137     14135     14138     14140     14137     14135     14138     14141
     14138     14141     14144     14145     14138     14141     14144     14146
     14138     14141     14144     14147     14139     14138     14141     14142
     14139     14138     14141     14143     14139     14138     14141     14144
     14140     14138     14141     14142     14140     14138     14141     14143
     14140     14138     14141     14144     14141     14144     14147     14148
     14141     14144     14147     14149     14141     14144     14147     14150
     14142     14141     14144     14145     14142     14141     14144     14146
     14142     14141     14144     14147     14143     14141     14144     14145
     14143     14141     14144     14146     14143     14141     14144     14147
     14144     14147     14150     14151     14144     14147     14150     14152
     14144     14147     14150     14153     14145     14144     14147     14148
     14145     14144     14147     14149     14145     14144     14147     14150
     14146     14144     14147     14148     14146     14144     14147     14149
     14146     14144     14147     14150     14148     14147     14150     14151
     14148     14147     14150     14152     14148     14147     14150     14153
     14149     14147     14150     14151     14149     14147     14150     14152
     14149     14147     14150     14153     14154     14158     14161     14162
     14154     14158     14161     14192     14154     14200     14197     14192
     14154     14200     14197     14198     14154     14200     14197     14199
     14155     14154     14156     14157     14155     14154     14158     14159
     14155     14154     14158     14160     14155     14154     14158     14161
     14155     14154     14200     14197     14155     14154     14200     14201
     14155     14154     14200     14202     14156     14154     14158     14159
     14156     14154     14158     14160     14156     14154     14158     14161
     14156     14154     14200     14197     14156     14154     14200     14201
     14156     14154     14200     14202     14157     14156     14154     14158
     14157     14156     14154     14200     14158     14154     14200     14197
     14158     14154     14200     14201     14158     14154     14200     14202
     14158     14161     14162     14163     14158     14161     14162     14164
     14158     14161     14192     14190     14158     14161     14192     14193
     14158     14161     14192     14197     14159     14158     14154     14200
     14159     14158     14161     14162     14159     14158     14161     14192
     14160     14158     14154     14200     14160     14158     14161     14162
     14160     14158     14161     14192     14161     14158     14154     14200
     14161     14162     14164     14165     14161     14162     14164     14166
     14161     14162     14164     14167     14161     14192     14190     14167
     14161     14192     14190     14187     14161     14192     14190     14191
     14161     14192     14193     14194     14161     14192     14193     14195
     14161     14192     14193     14196     14161     14192     14197     14198
     14161     14192     14197     14199     14161     14192     14197     14200
     14162     14161     14192     14190     14162     14161     14192     14193
     14162     14161     14192     14197     14162     14164     14167     14168
     14162     14164     14167     14169     14162     14164     14167     14190
     14163     14162     14161     14192     14163     14162     14164     14165
     14163     14162     14164     14166     14163     14162     14164     14167
     14164     14162     14161     14192     14164     14167     14169     14170
     14164     14167     14169     14171     14164     14167     14169     14179
     14164     14167     14190     14187     14164     14167     14190     14191
     14164     14167     14190     14192     14165     14164     14167     14168
     14165     14164     14167     14169     14165     14164     14167     14190
     14166     14164     14167     14168     14166     14164     14167     14169
     14166     14164     14167     14190     14167     14169     14171     14172
     14167     14169     14171     14173     14167     14169     14171     14174
     14167     14169     14179     14177     14167     14169     14179     14180
     14167     14169     14179     14184     14167     14190     14187     14184
     14167     14190     14187     14188     14167     14190     14187     14189
     14167     14190     14192     14193     14167     14190     14192     14197
     14168     14167     14169     14170     14168     14167     14169     14171
     14168     14167     14169     14179     14168     14167     14190     14187
     14168     14167     14190     14191     14168     14167     14190     14192
     14169     14167     14190     14187     14169     14167     14190     14191
     14169     14167     14190     14192     14169     14171     14174     14175
     14169     14171     14174     14176     14169     14171     14174     14177
     14169     14179     14177     14174     14169     14179     14177     14178
     14169     14179     14177     14203     14169     14179     14180     14181
     14169     14179     14180     14182     14169     14179     14180     14183
     14169     14179     14184     14185     14169     14179     14184     14186
     14169     14179     14184     14187     14170     14169     14167     14190
     14170     14169     14171     14172     14170     14169     14171     14173
     14170     14169     14171     14174     14170     14169     14179     14177
     14170     14169     14179     14180     14170     14169     14179     14184
     14171     14169     14167     14190     14171     14169     14179     14177
     14171     14169     14179     14180     14171     14169     14179     14184
     14171     14174     14177     14178     14171     14174     14177     14179
     14171     14174     14177     14203     14172     14171     14169     14179
     14172     14171     14174     14175     14172     14171     14174     14176
     14172     14171     14174     14177     14173     14171     14169     14179
     14173     14171     14174     14175     14173     14171     14174     14176
     14173     14171     14174     14177     14174     14171     14169     14179
     14174     14177     14179     14180     14174     14177     14179     14184
     14174     14177     14203     14204     14174     14177     14203     14205
     14174     14177     14203     14209     14175     14174     14177     14178
     14175     14174     14177     14179     14175     14174     14177     14203
     14176     14174     14177     14178     14176     14174     14177     14179
     14176     14174     14177     14203     14177     14179     14180     14181
     14177     14179     14180     14182     14177     14179     14180     14183
     14177     14179     14184     14185     14177     14179     14184     14186
     14177     14179     14184     14187     14177     14203     14205     14206
     14177     14203     14205     14207     14177     14203     14205     14208
     14177     14203     14209     14210     14177     14203     14209     14211
     14177     14203     14209     14212     14178     14177     14179     14180
     14178     14177     14179     14184     14178     14177     14203     14204
     14178     14177     14203     14205     14178     14177     14203     14209
     14179     14169     14167     14190     14179     14177     14203     14204
     14179     14177     14203     14205     14179     14177     14203     14209
     14179     14184     14187     14188     14179     14184     14187     14189
     14179     14184     14187     14190     14180     14179     14177     14203
     14180     14179     14184     14185     14180     14179     14184     14186
     14180     14179     14184     14187     14181     14180     14179     14184
     14182     14180     14179     14184     14183     14180     14179     14184
     14184     14179     14177     14203     14184     14187     14190     14191
     14184     14187     14190     14192     14185     14184     14187     14188
     14185     14184     14187     14189     14185     14184     14187     14190
     14186     14184     14187     14188     14186     14184     14187     14189
     14186     14184     14187     14190     14187     14190     14192     14193
     14187     14190     14192     14197     14188     14187     14190     14191
     14188     14187     14190     14192     14189     14187     14190     14191
     14189     14187     14190     14192     14190     14192     14193     14194
     14190     14192     14193     14195     14190     14192     14193     14196
     14190     14192     14197     14198     14190     14192     14197     14199
     14190     14192     14197     14200     14191     14190     14192     14193
     14191     14190     14192     14197     14192     14197     14200     14201
     14192     14197     14200     14202     14193     14192     14197     14198
     14193     14192     14197     14199     14193     14192     14197     14200
     14194     14193     14192     14197     14195     14193     14192     14197
     14196     14193     14192     14197     14198     14197     14200     14201
     14198     14197     14200     14202     14199     14197     14200     14201
     14199     14197     14200     14202     14203     14209     14212     14213
     14203     14209     14212     14214     14203     14209     14212     14215
     14204     14203     14205     14206     14204     14203     14205     14207
     14204     14203     14205     14208     14204     14203     14209     14210
     14204     14203     14209     14211     14204     14203     14209     14212
     14205     14203     14209     14210     14205     14203     14209     14211
     14205     14203     14209     14212     14206     14205     14203     14209
     14207     14205     14203     14209     14208     14205     14203     14209
     14209     14212     14215     14216     14209     14212     14215     14217
     14209     14212     14215     14218     14210     14209     14212     14213
     14210     14209     14212     14214     14210     14209     14212     14215
     14211     14209     14212     14213     14211     14209     14212     14214
     14211     14209     14212     14215     14212     14215     14218     14219
     14212     14215     14218     14220     14212     14215     14218     14224
     14213     14212     14215     14216     14213     14212     14215     14217
     14213     14212     14215     14218     14214     14212     14215     14216
     14214     14212     14215     14217     14214     14212     14215     14218
     14215     14218     14220     14221     14215     14218     14220     14222
     14215     14218     14220     14223     14215     14218     14224     14225
     14215     14218     14224     14226     14215     14218     14224     14227
     14216     14215     14218     14219     14216     14215     14218     14220
     14216     14215     14218     14224     14217     14215     14218     14219
     14217     14215     14218     14220     14217     14215     14218     14224
     14219     14218     14220     14221     14219     14218     14220     14222
     14219     14218     14220     14223     14219     14218     14224     14225
     14219     14218     14224     14226     14219     14218     14224     14227
     14220     14218     14224     14225     14220     14218     14224     14226
     14220     14218     14224     14227     14221     14220     14218     14224
     14222     14220     14218     14224     14223     14220     14218     14224
     14228     14232     14235     14236     14228     14232     14235     14266
     14228     14274     14271     14266     14228     14274     14271     14272
     14228     14274     14271     14273     14229     14228     14230     14231
     14229     14228     14232     14233     14229     14228     14232     14234
     14229     14228     14232     14235     14229     14228     14274     14271
     14229     14228     14274     14275     14229     14228     14274     14276
     14230     14228     14232     14233     14230     14228     14232     14234
     14230     14228     14232     14235     14230     14228     14274     14271
     14230     14228     14274     14275     14230     14228     14274     14276
     14231     14230     14228     14232     14231     14230     14228     14274
     14232     14228     14274     14271     14232     14228     14274     14275
     14232     14228     14274     14276     14232     14235     14236     14237
     14232     14235     14236     14238     14232     14235     14266     14264
     14232     14235     14266     14267     14232     14235     14266     14271
     14233     14232     14228     14274     14233     14232     14235     14236
     14233     14232     14235     14266     14234     14232     14228     14274
     14234     14232     14235     14236     14234     14232     14235     14266
     14235     14232     14228     14274     14235     14236     14238     14239
     14235     14236     14238     14240     14235     14236     14238     14241
     14235     14266     14264     14241     14235     14266     14264     14261
     14235     14266     14264     14265     14235     14266     14267     14268
     14235     14266     14267     14269     14235     14266     14267     14270
     14235     14266     14271     14272     14235     14266     14271     14273
     14235     14266     14271     14274     14236     14235     14266     14264
     14236     14235     14266     14267     14236     14235     14266     14271
     14236     14238     14241     14242     14236     14238     14241     14243
     14236     14238     14241     14264     14237     14236     14235     14266
     14237     14236     14238     14239     14237     14236     14238     14240
     14237     14236     14238     14241     14238     14236     14235     14266
     14238     14241     14243     14244     14238     14241     14243     14245
     14238     14241     14243     14253     14238     14241     14264     14261
     14238     14241     14264     14265     14238     14241     14264     14266
     14239     14238     14241     14242     14239     14238     14241     14243
     14239     14238     14241     14264     14240     14238     14241     14242
     14240     14238     14241     14243     14240     14238     14241     14264
     14241     14243     14245     14246     14241     14243     14245     14247
     14241     14243     14245     14248     14241     14243     14253     14251
     14241     14243     14253     14254     14241     14243     14253     14258
     14241     14264     14261     14258     14241     14264     14261     14262
     14241     14264     14261     14263     14241     14264     14266     14267
     14241     14264     14266     14271     14242     14241     14243     14244
     14242     14241     14243     14245     14242     14241     14243     14253
     14242     14241     14264     14261     14242     14241     14264     14265
     14242     14241     14264     14266     14243     14241     14264     14261
     14243     14241     14264     14265     14243     14241     14264     14266
     14243     14245     14248     14249     14243     14245     14248     14250
     14243     14245     14248     14251     14243     14253     14251     14248
     14243     14253     14251     14252     14243     14253     14251     14277
     14243     14253     14254     14255     14243     14253     14254     14256
     14243     14253     14254     14257     14243     14253     14258     14259
     14243     14253     14258     14260     14243     14253     14258     14261
     14244     14243     14241     14264     14244     14243     14245     14246
     14244     14243     14245     14247     14244     14243     14245     14248
     14244     14243     14253     14251     14244     14243     14253     14254
     14244     14243     14253     14258     14245     14243     14241     14264
     14245     14243     14253     14251     14245     14243     14253     14254
     14245     14243     14253     14258     14245     14248     14251     14252
     14245     14248     14251     14253     14245     14248     14251     14277
     14246     14245     14243     14253     14246     14245     14248     14249
     14246     14245     14248     14250     14246     14245     14248     14251
     14247     14245     14243     14253     14247     14245     14248     14249
     14247     14245     14248     14250     14247     14245     14248     14251
     14248     14245     14243     14253     14248     14251     14253     14254
     14248     14251     14253     14258     14248     14251     14277     14278
     14248     14251     14277     14279     14248     14251     14277     14283
     14249     14248     14251     14252     14249     14248     14251     14253
     14249     14248     14251     14277     14250     14248     14251     14252
     14250     14248     14251     14253     14250     14248     14251     14277
     14251     14253     14254     14255     14251     14253     14254     14256
     14251     14253     14254     14257     14251     14253     14258     14259
     14251     14253     14258     14260     14251     14253     14258     14261
     14251     14277     14279     14280     14251     14277     14279     14281
     14251     14277     14279     14282     14251     14277     14283     14284
     14251     14277     14283     14285     14251     14277     14283     14286
     14252     14251     14253     14254     14252     14251     14253     14258
     14252     14251     14277     14278     14252     14251     14277     14279
     14252     14251     14277     14283     14253     14243     14241     14264
     14253     14251     14277     14278     14253     14251     14277     14279
     14253     14251     14277     14283     14253     14258     14261     14262
     14253     14258     14261     14263     14253     14258     14261     14264
     14254     14253     14251     14277     14254     14253     14258     14259
     14254     14253     14258     14260     14254     14253     14258     14261
     14255     14254     14253     14258     14256     14254     14253     14258
     14257     14254     14253     14258     14258     14253     14251     14277
     14258     14261     14264     14265     14258     14261     14264     14266
     14259     14258     14261     14262     14259     14258     14261     14263
     14259     14258     14261     14264     14260     14258     14261     14262
     14260     14258     14261     14263     14260     14258     14261     14264
     14261     14264     14266     14267     14261     14264     14266     14271
     14262     14261     14264     14265     14262     14261     14264     14266
     14263     14261     14264     14265     14263     14261     14264     14266
     14264     14266     14267     14268     14264     14266     14267     14269
     14264     14266     14267     14270     14264     14266     14271     14272
     14264     14266     14271     14273     14264     14266     14271     14274
     14265     14264     14266     14267     14265     14264     14266     14271
     14266     14271     14274     14275     14266     14271     14274     14276
     14267     14266     14271     14272     14267     14266     14271     14273
     14267     14266     14271     14274     14268     14267     14266     14271
     14269     14267     14266     14271     14270     14267     14266     14271
     14272     14271     14274     14275     14272     14271     14274     14276
     14273     14271     14274     14275     14273     14271     14274     14276
     14277     14283     14286     14287     14277     14283     14286     14288
     14277     14283     14286     14289     14278     14277     14279     14280
     14278     14277     14279     14281     14278     14277     14279     14282
     14278     14277     14283     14284     14278     14277     14283     14285
     14278     14277     14283     14286     14279     14277     14283     14284
     14279     14277     14283     14285     14279     14277     14283     14286
     14280     14279     14277     14283     14281     14279     14277     14283
     14282     14279     14277     14283     14283     14286     14289     14290
     14283     14286     14289     14291     14283     14286     14289     14292
     14284     14283     14286     14287     14284     14283     14286     14288
     14284     14283     14286     14289     14285     14283     14286     14287
     14285     14283     14286     14288     14285     14283     14286     14289
     14286     14289     14292     14293     14286     14289     14292     14294
     14286     14289     14292     14298     14287     14286     14289     14290
     14287     14286     14289     14291     14287     14286     14289     14292
     14288     14286     14289     14290     14288     14286     14289     14291
     14288     14286     14289     14292     14289     14292     14294     14295
     14289     14292     14294     14296     14289     14292     14294     14297
     14289     14292     14298     14299     14289     14292     14298     14300
     14289     14292     14298     14301     14290     14289     14292     14293
     14290     14289     14292     14294     14290     14289     14292     14298
     14291     14289     14292     14293     14291     14289     14292     14294
     14291     14289     14292     14298     14293     14292     14294     14295
     14293     14292     14294     14296     14293     14292     14294     14297
     14293     14292     14298     14299     14293     14292     14298     14300
     14293     14292     14298     14301     14294     14292     14298     14299
     14294     14292     14298     14300     14294     14292     14298     14301
     14295     14294     14292     14298     14296     14294     14292     14298
     14297     14294     14292     14298     14302     14315     14318     14319
     14302     14315     14318     14320     14302     14315     14318     14325
     14303     14302     14307     14308     14303     14302     14307     14309
     14303     14302     14307     14310     14303     14302     14311     14312
     14303     14302     14311     14313     14303     14302     14311     14314
     14303     14302     14315     14316     14303     14302     14315     14317
     14303     14302     14315     14318     14304     14303     14302     14307
     14304     14303     14302     14311     14304     14303     14302     14315
     14305     14303     14302     14307     14305     14303     14302     14311
     14305     14303     14302     14315     14306     14303     14302     14307
     14306     14303     14302     14311     14306     14303     14302     14315
     14307     14302     14311     14312     14307     14302     14311     14313
     14307     14302     14311     14314     14307     14302     14315     14316
     14307     14302     14315     14317     14307     14302     14315     14318
     14308     14307     14302     14311     14308     14307     14302     14315
     14309     14307     14302     14311     14309     14307     14302     14315
     14310     14307     14302     14311     14310     14307     14302     14315
     14311     14302     14315     14316     14311     14302     14315     14317
     14311     14302     14315     14318     14312     14311     14302     14315
     14313     14311     14302     14315     14314     14311     14302     14315
     14315     14318     14325     14321     14316     14315     14318     14319
     14316     14315     14318     14320     14316     14315     14318     14325
     14317     14315     14318     14319     14317     14315     14318     14320
     14317     14315     14318     14325     14318     14325     14321     14322
     14318     14325     14321     14323     14318     14325     14321     14324
     14319     14318     14325     14321     14320     14318     14325     14321
     14321     14324     14326     14327     14321     14324     14326     14328
     14321     14324     14326     14331     14322     14321     14324     14326
     14323     14321     14324     14326     14324     14326     14331     14329
     14324     14326     14331     14332     14324     14326     14331     14333
     14325     14321     14324     14326     14326     14331     14329     14330
     14326     14331     14329     14381     14326     14331     14333     14334
     14326     14331     14333     14335     14326     14331     14333     14337
     14327     14326     14331     14329     14327     14326     14331     14332
     14327     14326     14331     14333     14328     14326     14331     14329
     14328     14326     14331     14332     14328     14326     14331     14333
     14329     14331     14333     14334     14329     14331     14333     14335
     14329     14331     14333     14337     14329     14381     14383     14384
     14329     14381     14383     14385     14329     14381     14383     14386
     14330     14329     14331     14332     14330     14329     14331     14333
     14330     14329     14381     14382     14330     14329     14381     14383
     14331     14329     14381     14382     14331     14329     14381     14383
     14331     14333     14335     14336     14331     14333     14337     14338
     14331     14333     14337     14339     14332     14331     14329     14381
     14332     14331     14333     14334     14332     14331     14333     14335
     14332     14331     14333     14337     14333     14331     14329     14381
     14333     14337     14339     14340     14333     14337     14339     14341
     14334     14333     14335     14336     14334     14333     14337     14338
     14334     14333     14337     14339     14335     14333     14337     14338
     14335     14333     14337     14339     14336     14335     14333     14337
     14337     14339     14341     14342     14337     14339     14341     14343
     14337     14339     14341     14344     14338     14337     14339     14340
     14338     14337     14339     14341     14339     14341     14344     14345
     14339     14341     14344     14346     14339     14341     14344     14347
     14340     14339     14341     14342     14340     14339     14341     14343
     14340     14339     14341     14344     14341     14344     14347     14348
     14341     14344     14347     14349     14341     14344     14347     14350
     14342     14341     14344     14345     14342     14341     14344     14346
     14342     14341     14344     14347     14343     14341     14344     14345
     14343     14341     14344     14346     14343     14341     14344     14347
     14344     14347     14350     14351     14344     14347     14350     14352
     14344     14347     14350     14353     14345     14344     14347     14348
     14345     14344     14347     14349     14345     14344     14347     14350
     14346     14344     14347     14348     14346     14344     14347     14349
     14346     14344     14347     14350     14347     14350     14353     14354
     14347     14350     14353     14355     14347     14350     14353     14356
     14348     14347     14350     14351     14348     14347     14350     14352
     14348     14347     14350     14353     14349     14347     14350     14351
     14349     14347     14350     14352     14349     14347     14350     14353
     14350     14353     14356     14357     14350     14353     14356     14358
     14350     14353     14356     14359     14351     14350     14353     14354
     14351     14350     14353     14355     14351     14350     14353     14356
     14352     14350     14353     14354     14352     14350     14353     14355
     14352     14350     14353     14356     14353     14356     14359     14360
     14353     14356     14359     14361     14353     14356     14359     14362
     14354     14353     14356     14357     14354     14353     14356     14358
     14354     14353     14356     14359     14355     14353     14356     14357
     14355     14353     14356     14358     14355     14353     14356     14359
     14356     14359     14362     14363     14356     14359     14362     14364
     14356     14359     14362     14365     14357     14356     14359     14360
     14357     14356     14359     14361     14357     14356     14359     14362
     14358     14356     14359     14360     14358     14356     14359     14361
     14358     14356     14359     14362     14359     14362     14365     14366
     14359     14362     14365     14367     14359     14362     14365     14368
     14360     14359     14362     14363     14360     14359     14362     14364
     14360     14359     14362     14365     14361     14359     14362     14363
     14361     14359     14362     14364     14361     14359     14362     14365
     14362     14365     14368     14369     14362     14365     14368     14370
     14362     14365     14368     14371     14363     14362     14365     14366
     14363     14362     14365     14367     14363     14362     14365     14368
     14364     14362     14365     14366     14364     14362     14365     14367
     14364     14362     14365     14368     14365     14368     14371     14372
     14365     14368     14371     14373     14365     14368     14371     14374
     14366     14365     14368     14369     14366     14365     14368     14370
     14366     14365     14368     14371     14367     14365     14368     14369
     14367     14365     14368     14370     14367     14365     14368     14371
     14368     14371     14374     14375     14368     14371     14374     14376
     14368     14371     14374     14377     14369     14368     14371     14372
     14369     14368     14371     14373     14369     14368     14371     14374
     14370     14368     14371     14372     14370     14368     14371     14373
     14370     14368     14371     14374     14371     14374     14377     14378
     14371     14374     14377     14379     14371     14374     14377     14380
     14372     14371     14374     14375     14372     14371     14374     14376
     14372     14371     14374     14377     14373     14371     14374     14375
     14373     14371     14374     14376     14373     14371     14374     14377
     14375     14374     14377     14378     14375     14374     14377     14379
     14375     14374     14377     14380     14376     14374     14377     14378
     14376     14374     14377     14379     14376     14374     14377     14380
     14381     14383     14386     14387     14381     14383     14386     14388
     14381     14383     14386     14389     14382     14381     14383     14384
     14382     14381     14383     14385     14382     14381     14383     14386
     14383     14386     14389     14390     14383     14386     14389     14391
     14383     14386     14389     14392     14384     14383     14386     14387
     14384     14383     14386     14388     14384     14383     14386     14389
     14385     14383     14386     14387     14385     14383     14386     14388
     14385     14383     14386     14389     14386     14389     14392     14393
     14386     14389     14392     14394     14386     14389     14392     14395
     14387     14386     14389     14390     14387     14386     14389     14391
     14387     14386     14389     14392     14388     14386     14389     14390
     14388     14386     14389     14391     14388     14386     14389     14392
     14389     14392     14395     14396     14389     14392     14395     14397
     14389     14392     14395     14398     14390     14389     14392     14393
     14390     14389     14392     14394     14390     14389     14392     14395
     14391     14389     14392     14393     14391     14389     14392     14394
     14391     14389     14392     14395     14392     14395     14398     14399
     14392     14395     14398     14400     14392     14395     14398     14401
     14393     14392     14395     14396     14393     14392     14395     14397
     14393     14392     14395     14398     14394     14392     14395     14396
     14394     14392     14395     14397     14394     14392     14395     14398
     14395     14398     14401     14402     14395     14398     14401     14403
     14395     14398     14401     14404     14396     14395     14398     14399
     14396     14395     14398     14400     14396     14395     14398     14401
     14397     14395     14398     14399     14397     14395     14398     14400
     14397     14395     14398     14401     14398     14401     14404     14405
     14398     14401     14404     14406     14399     14398     14401     14402
     14399     14398     14401     14403     14399     14398     14401     14404
     14400     14398     14401     14402     14400     14398     14401     14403
     14400     14398     14401     14404     14401     14404     14406     14407
     14401     14404     14406     14408     14402     14401     14404     14405
     14402     14401     14404     14406     14403     14401     14404     14405
     14403     14401     14404     14406     14404     14406     14408     14409
     14404     14406     14408     14410     14404     14406     14408     14411
     14405     14404     14406     14407     14405     14404     14406     14408
     14406     14408     14411     14412     14406     14408     14411     14413
     14406     14408     14411     14414     14407     14406     14408     14409
     14407     14406     14408     14410     14407     14406     14408     14411
     14408     14411     14414     14415     14408     14411     14414     14416
     14408     14411     14414     14417     14409     14408     14411     14412
     14409     14408     14411     14413     14409     14408     14411     14414
     14410     14408     14411     14412     14410     14408     14411     14413
     14410     14408     14411     14414     14411     14414     14417     14418
     14411     14414     14417     14419     14411     14414     14417     14420
     14412     14411     14414     14415     14412     14411     14414     14416
     14412     14411     14414     14417     14413     14411     14414     14415
     14413     14411     14414     14416     14413     14411     14414     14417
     14414     14417     14420     14421     14414     14417     14420     14422
     14414     14417     14420     14423     14415     14414     14417     14418
     14415     14414     14417     14419     14415     14414     14417     14420
     14416     14414     14417     14418     14416     14414     14417     14419
     14416     14414     14417     14420     14417     14420     14423     14424
     14417     14420     14423     14425     14417     14420     14423     14426
     14418     14417     14420     14421     14418     14417     14420     14422
     14418     14417     14420     14423     14419     14417     14420     14421
     14419     14417     14420     14422     14419     14417     14420     14423
     14420     14423     14426     14427     14420     14423     14426     14428
     14420     14423     14426     14429     14421     14420     14423     14424
     14421     14420     14423     14425     14421     14420     14423     14426
     14422     14420     14423     14424     14422     14420     14423     14425
     14422     14420     14423     14426     14423     14426     14429     14430
     14423     14426     14429     14431     14423     14426     14429     14432
     14424     14423     14426     14427     14424     14423     14426     14428
     14424     14423     14426     14429     14425     14423     14426     14427
     14425     14423     14426     14428     14425     14423     14426     14429
     14427     14426     14429     14430     14427     14426     14429     14431
     14427     14426     14429     14432     14428     14426     14429     14430
     14428     14426     14429     14431     14428     14426     14429     14432
     14433     14437     14440     14441     14433     14437     14440     14471
     14433     14479     14476     14471     14433     14479     14476     14477
     14433     14479     14476     14478     14434     14433     14435     14436
     14434     14433     14437     14438     14434     14433     14437     14439
     14434     14433     14437     14440     14434     14433     14479     14476
     14434     14433     14479     14480     14434     14433     14479     14481
     14435     14433     14437     14438     14435     14433     14437     14439
     14435     14433     14437     14440     14435     14433     14479     14476
     14435     14433     14479     14480     14435     14433     14479     14481
     14436     14435     14433     14437     14436     14435     14433     14479
     14437     14433     14479     14476     14437     14433     14479     14480
     14437     14433     14479     14481     14437     14440     14441     14442
     14437     14440     14441     14443     14437     14440     14471     14469
     14437     14440     14471     14472     14437     14440     14471     14476
     14438     14437     14433     14479     14438     14437     14440     14441
     14438     14437     14440     14471     14439     14437     14433     14479
     14439     14437     14440     14441     14439     14437     14440     14471
     14440     14437     14433     14479     14440     14441     14443     14444
     14440     14441     14443     14445     14440     14441     14443     14446
     14440     14471     14469     14446     14440     14471     14469     14466
     14440     14471     14469     14470     14440     14471     14472     14473
     14440     14471     14472     14474     14440     14471     14472     14475
     14440     14471     14476     14477     14440     14471     14476     14478
     14440     14471     14476     14479     14441     14440     14471     14469
     14441     14440     14471     14472     14441     14440     14471     14476
     14441     14443     14446     14447     14441     14443     14446     14448
     14441     14443     14446     14469     14442     14441     14440     14471
     14442     14441     14443     14444     14442     14441     14443     14445
     14442     14441     14443     14446     14443     14441     14440     14471
     14443     14446     14448     14449     14443     14446     14448     14450
     14443     14446     14448     14458     14443     14446     14469     14466
     14443     14446     14469     14470     14443     14446     14469     14471
     14444     14443     14446     14447     14444     14443     14446     14448
     14444     14443     14446     14469     14445     14443     14446     14447
     14445     14443     14446     14448     14445     14443     14446     14469
     14446     14448     14450     14451     14446     14448     14450     14452
     14446     14448     14450     14453     14446     14448     14458     14456
     14446     14448     14458     14459     14446     14448     14458     14463
     14446     14469     14466     14463     14446     14469     14466     14467
     14446     14469     14466     14468     14446     14469     14471     14472
     14446     14469     14471     14476     14447     14446     14448     14449
     14447     14446     14448     14450     14447     14446     14448     14458
     14447     14446     14469     14466     14447     14446     14469     14470
     14447     14446     14469     14471     14448     14446     14469     14466
     14448     14446     14469     14470     14448     14446     14469     14471
     14448     14450     14453     14454     14448     14450     14453     14455
     14448     14450     14453     14456     14448     14458     14456     14453
     14448     14458     14456     14457     14448     14458     14456     14482
     14448     14458     14459     14460     14448     14458     14459     14461
     14448     14458     14459     14462     14448     14458     14463     14464
     14448     14458     14463     14465     14448     14458     14463     14466
     14449     14448     14446     14469     14449     14448     14450     14451
     14449     14448     14450     14452     14449     14448     14450     14453
     14449     14448     14458     14456     14449     14448     14458     14459
     14449     14448     14458     14463     14450     14448     14446     14469
     14450     14448     14458     14456     14450     14448     14458     14459
     14450     14448     14458     14463     14450     14453     14456     14457
     14450     14453     14456     14458     14450     14453     14456     14482
     14451     14450     14448     14458     14451     14450     14453     14454
     14451     14450     14453     14455     14451     14450     14453     14456
     14452     14450     14448     14458     14452     14450     14453     14454
     14452     14450     14453     14455     14452     14450     14453     14456
     14453     14450     14448     14458     14453     14456     14458     14459
     14453     14456     14458     14463     14453     14456     14482     14483
     14453     14456     14482     14484     14453     14456     14482     14488
     14454     14453     14456     14457     14454     14453     14456     14458
     14454     14453     14456     14482     14455     14453     14456     14457
     14455     14453     14456     14458     14455     14453     14456     14482
     14456     14458     14459     14460     14456     14458     14459     14461
     14456     14458     14459     14462     14456     14458     14463     14464
     14456     14458     14463     14465     14456     14458     14463     14466
     14456     14482     14484     14485     14456     14482     14484     14486
     14456     14482     14484     14487     14456     14482     14488     14489
     14456     14482     14488     14490     14456     14482     14488     14491
     14457     14456     14458     14459     14457     14456     14458     14463
     14457     14456     14482     14483     14457     14456     14482     14484
     14457     14456     14482     14488     14458     14448     14446     14469
     14458     14456     14482     14483     14458     14456     14482     14484
     14458     14456     14482     14488     14458     14463     14466     14467
     14458     14463     14466     14468     14458     14463     14466     14469
     14459     14458     14456     14482     14459     14458     14463     14464
     14459     14458     14463     14465     14459     14458     14463     14466
     14460     14459     14458     14463     14461     14459     14458     14463
     14462     14459     14458     14463     14463     14458     14456     14482
     14463     14466     14469     14470     14463     14466     14469     14471
     14464     14463     14466     14467     14464     14463     14466     14468
     14464     14463     14466     14469     14465     14463     14466     14467
     14465     14463     14466     14468     14465     14463     14466     14469
     14466     14469     14471     14472     14466     14469     14471     14476
     14467     14466     14469     14470     14467     14466     14469     14471
     14468     14466     14469     14470     14468     14466     14469     14471
     14469     14471     14472     14473     14469     14471     14472     14474
     14469     14471     14472     14475     14469     14471     14476     14477
     14469     14471     14476     14478     14469     14471     14476     14479
     14470     14469     14471     14472     14470     14469     14471     14476
     14471     14476     14479     14480     14471     14476     14479     14481
     14472     14471     14476     14477     14472     14471     14476     14478
     14472     14471     14476     14479     14473     14472     14471     14476
     14474     14472     14471     14476     14475     14472     14471     14476
     14477     14476     14479     14480     14477     14476     14479     14481
     14478     14476     14479     14480     14478     14476     14479     14481
     14482     14488     14491     14492     14482     14488     14491     14493
     14482     14488     14491     14494     14483     14482     14484     14485
     14483     14482     14484     14486     14483     14482     14484     14487
     14483     14482     14488     14489     14483     14482     14488     14490
     14483     14482     14488     14491     14484     14482     14488     14489
     14484     14482     14488     14490     14484     14482     14488     14491
     14485     14484     14482     14488     14486     14484     14482     14488
     14487     14484     14482     14488     14488     14491     14494     14495
     14488     14491     14494     14496     14488     14491     14494     14497
     14489     14488     14491     14492     14489     14488     14491     14493
     14489     14488     14491     14494     14490     14488     14491     14492
     14490     14488     14491     14493     14490     14488     14491     14494
     14491     14494     14497     14498     14491     14494     14497     14499
     14491     14494     14497     14503     14492     14491     14494     14495
     14492     14491     14494     14496     14492     14491     14494     14497
     14493     14491     14494     14495     14493     14491     14494     14496
     14493     14491     14494     14497     14494     14497     14499     14500
     14494     14497     14499     14501     14494     14497     14499     14502
     14494     14497     14503     14504     14494     14497     14503     14505
     14494     14497     14503     14506     14495     14494     14497     14498
     14495     14494     14497     14499     14495     14494     14497     14503
     14496     14494     14497     14498     14496     14494     14497     14499
     14496     14494     14497     14503     14498     14497     14499     14500
     14498     14497     14499     14501     14498     14497     14499     14502
     14498     14497     14503     14504     14498     14497     14503     14505
     14498     14497     14503     14506     14499     14497     14503     14504
     14499     14497     14503     14505     14499     14497     14503     14506
     14500     14499     14497     14503     14501     14499     14497     14503
     14502     14499     14497     14503     14507     14511     14514     14515
     14507     14511     14514     14545     14507     14553     14550     14545
     14507     14553     14550     14551     14507     14553     14550     14552
     14508     14507     14509     14510     14508     14507     14511     14512
     14508     14507     14511     14513     14508     14507     14511     14514
     14508     14507     14553     14550     14508     14507     14553     14554
     14508     14507     14553     14555     14509     14507     14511     14512
     14509     14507     14511     14513     14509     14507     14511     14514
     14509     14507     14553     14550     14509     14507     14553     14554
     14509     14507     14553     14555     14510     14509     14507     14511
     14510     14509     14507     14553     14511     14507     14553     14550
     14511     14507     14553     14554     14511     14507     14553     14555
     14511     14514     14515     14516     14511     14514     14515     14517
     14511     14514     14545     14543     14511     14514     14545     14546
     14511     14514     14545     14550     14512     14511     14507     14553
     14512     14511     14514     14515     14512     14511     14514     14545
     14513     14511     14507     14553     14513     14511     14514     14515
     14513     14511     14514     14545     14514     14511     14507     14553
     14514     14515     14517     14518     14514     14515     14517     14519
     14514     14515     14517     14520     14514     14545     14543     14520
     14514     14545     14543     14540     14514     14545     14543     14544
     14514     14545     14546     14547     14514     14545     14546     14548
     14514     14545     14546     14549     14514     14545     14550     14551
     14514     14545     14550     14552     14514     14545     14550     14553
     14515     14514     14545     14543     14515     14514     14545     14546
     14515     14514     14545     14550     14515     14517     14520     14521
     14515     14517     14520     14522     14515     14517     14520     14543
     14516     14515     14514     14545     14516     14515     14517     14518
     14516     14515     14517     14519     14516     14515     14517     14520
     14517     14515     14514     14545     14517     14520     14522     14523
     14517     14520     14522     14524     14517     14520     14522     14532
     14517     14520     14543     14540     14517     14520     14543     14544
     14517     14520     14543     14545     14518     14517     14520     14521
     14518     14517     14520     14522     14518     14517     14520     14543
     14519     14517     14520     14521     14519     14517     14520     14522
     14519     14517     14520     14543     14520     14522     14524     14525
     14520     14522     14524     14526     14520     14522     14524     14527
     14520     14522     14532     14530     14520     14522     14532     14533
     14520     14522     14532     14537     14520     14543     14540     14537
     14520     14543     14540     14541     14520     14543     14540     14542
     14520     14543     14545     14546     14520     14543     14545     14550
     14521     14520     14522     14523     14521     14520     14522     14524
     14521     14520     14522     14532     14521     14520     14543     14540
     14521     14520     14543     14544     14521     14520     14543     14545
     14522     14520     14543     14540     14522     14520     14543     14544
     14522     14520     14543     14545     14522     14524     14527     14528
     14522     14524     14527     14529     14522     14524     14527     14530
     14522     14532     14530     14527     14522     14532     14530     14531
     14522     14532     14530     14556     14522     14532     14533     14534
     14522     14532     14533     14535     14522     14532     14533     14536
     14522     14532     14537     14538     14522     14532     14537     14539
     14522     14532     14537     14540     14523     14522     14520     14543
     14523     14522     14524     14525     14523     14522     14524     14526
     14523     14522     14524     14527     14523     14522     14532     14530
     14523     14522     14532     14533     14523     14522     14532     14537
     14524     14522     14520     14543     14524     14522     14532     14530
     14524     14522     14532     14533     14524     14522     14532     14537
     14524     14527     14530     14531     14524     14527     14530     14532
     14524     14527     14530     14556     14525     14524     14522     14532
     14525     14524     14527     14528     14525     14524     14527     14529
     14525     14524     14527     14530     14526     14524     14522     14532
     14526     14524     14527     14528     14526     14524     14527     14529
     14526     14524     14527     14530     14527     14524     14522     14532
     14527     14530     14532     14533     14527     14530     14532     14537
     14527     14530     14556     14557     14527     14530     14556     14558
     14527     14530     14556     14562     14528     14527     14530     14531
     14528     14527     14530     14532     14528     14527     14530     14556
     14529     14527     14530     14531     14529     14527     14530     14532
     14529     14527     14530     14556     14530     14532     14533     14534
     14530     14532     14533     14535     14530     14532     14533     14536
     14530     14532     14537     14538     14530     14532     14537     14539
     14530     14532     14537     14540     14530     14556     14558     14559
     14530     14556     14558     14560     14530     14556     14558     14561
     14530     14556     14562     14563     14530     14556     14562     14564
     14530     14556     14562     14565     14531     14530     14532     14533
     14531     14530     14532     14537     14531     14530     14556     14557
     14531     14530     14556     14558     14531     14530     14556     14562
     14532     14522     14520     14543     14532     14530     14556     14557
     14532     14530     14556     14558     14532     14530     14556     14562
     14532     14537     14540     14541     14532     14537     14540     14542
     14532     14537     14540     14543     14533     14532     14530     14556
     14533     14532     14537     14538     14533     14532     14537     14539
     14533     14532     14537     14540     14534     14533     14532     14537
     14535     14533     14532     14537     14536     14533     14532     14537
     14537     14532     14530     14556     14537     14540     14543     14544
     14537     14540     14543     14545     14538     14537     14540     14541
     14538     14537     14540     14542     14538     14537     14540     14543
     14539     14537     14540     14541     14539     14537     14540     14542
     14539     14537     14540     14543     14540     14543     14545     14546
     14540     14543     14545     14550     14541     14540     14543     14544
     14541     14540     14543     14545     14542     14540     14543     14544
     14542     14540     14543     14545     14543     14545     14546     14547
     14543     14545     14546     14548     14543     14545     14546     14549
     14543     14545     14550     14551     14543     14545     14550     14552
     14543     14545     14550     14553     14544     14543     14545     14546
     14544     14543     14545     14550     14545     14550     14553     14554
     14545     14550     14553     14555     14546     14545     14550     14551
     14546     14545     14550     14552     14546     14545     14550     14553
     14547     14546     14545     14550     14548     14546     14545     14550
     14549     14546     14545     14550     14551     14550     14553     14554
     14551     14550     14553     14555     14552     14550     14553     14554
     14552     14550     14553     14555     14556     14562     14565     14566
     14556     14562     14565     14567     14556     14562     14565     14568
     14557     14556     14558     14559     14557     14556     14558     14560
     14557     14556     14558     14561     14557     14556     14562     14563
     14557     14556     14562     14564     14557     14556     14562     14565
     14558     14556     14562     14563     14558     14556     14562     14564
     14558     14556     14562     14565     14559     14558     14556     14562
     14560     14558     14556     14562     14561     14558     14556     14562
     14562     14565     14568     14569     14562     14565     14568     14570
     14562     14565     14568     14571     14563     14562     14565     14566
     14563     14562     14565     14567     14563     14562     14565     14568
     14564     14562     14565     14566     14564     14562     14565     14567
     14564     14562     14565     14568     14565     14568     14571     14572
     14565     14568     14571     14573     14565     14568     14571     14577
     14566     14565     14568     14569     14566     14565     14568     14570
     14566     14565     14568     14571     14567     14565     14568     14569
     14567     14565     14568     14570     14567     14565     14568     14571
     14568     14571     14573     14574     14568     14571     14573     14575
     14568     14571     14573     14576     14568     14571     14577     14578
     14568     14571     14577     14579     14568     14571     14577     14580
     14569     14568     14571     14572     14569     14568     14571     14573
     14569     14568     14571     14577     14570     14568     14571     14572
     14570     14568     14571     14573     14570     14568     14571     14577
     14572     14571     14573     14574     14572     14571     14573     14575
     14572     14571     14573     14576     14572     14571     14577     14578
     14572     14571     14577     14579     14572     14571     14577     14580
     14573     14571     14577     14578     14573     14571     14577     14579
     14573     14571     14577     14580     14574     14573     14571     14577
     14575     14573     14571     14577     14576     14573     14571     14577
     14581     14585     14588     14589     14581     14585     14588     14619
     14581     14627     14624     14619     14581     14627     14624     14625
     14581     14627     14624     14626     14582     14581     14583     14584
     14582     14581     14585     14586     14582     14581     14585     14587
     14582     14581     14585     14588     14582     14581     14627     14624
     14582     14581     14627     14628     14582     14581     14627     14629
     14583     14581     14585     14586     14583     14581     14585     14587
     14583     14581     14585     14588     14583     14581     14627     14624
     14583     14581     14627     14628     14583     14581     14627     14629
     14584     14583     14581     14585     14584     14583     14581     14627
     14585     14581     14627     14624     14585     14581     14627     14628
     14585     14581     14627     14629     14585     14588     14589     14590
     14585     14588     14589     14591     14585     14588     14619     14617
     14585     14588     14619     14620     14585     14588     14619     14624
     14586     14585     14581     14627     14586     14585     14588     14589
     14586     14585     14588     14619     14587     14585     14581     14627
     14587     14585     14588     14589     14587     14585     14588     14619
     14588     14585     14581     14627     14588     14589     14591     14592
     14588     14589     14591     14593     14588     14589     14591     14594
     14588     14619     14617     14594     14588     14619     14617     14614
     14588     14619     14617     14618     14588     14619     14620     14621
     14588     14619     14620     14622     14588     14619     14620     14623
     14588     14619     14624     14625     14588     14619     14624     14626
     14588     14619     14624     14627     14589     14588     14619     14617
     14589     14588     14619     14620     14589     14588     14619     14624
     14589     14591     14594     14595     14589     14591     14594     14596
     14589     14591     14594     14617     14590     14589     14588     14619
     14590     14589     14591     14592     14590     14589     14591     14593
     14590     14589     14591     14594     14591     14589     14588     14619
     14591     14594     14596     14597     14591     14594     14596     14598
     14591     14594     14596     14606     14591     14594     14617     14614
     14591     14594     14617     14618     14591     14594     14617     14619
     14592     14591     14594     14595     14592     14591     14594     14596
     14592     14591     14594     14617     14593     14591     14594     14595
     14593     14591     14594     14596     14593     14591     14594     14617
     14594     14596     14598     14599     14594     14596     14598     14600
     14594     14596     14598     14601     14594     14596     14606     14604
     14594     14596     14606     14607     14594     14596     14606     14611
     14594     14617     14614     14611     14594     14617     14614     14615
     14594     14617     14614     14616     14594     14617     14619     14620
     14594     14617     14619     14624     14595     14594     14596     14597
     14595     14594     14596     14598     14595     14594     14596     14606
     14595     14594     14617     14614     14595     14594     14617     14618
     14595     14594     14617     14619     14596     14594     14617     14614
     14596     14594     14617     14618     14596     14594     14617     14619
     14596     14598     14601     14602     14596     14598     14601     14603
     14596     14598     14601     14604     14596     14606     14604     14601
     14596     14606     14604     14605     14596     14606     14604     14630
     14596     14606     14607     14608     14596     14606     14607     14609
     14596     14606     14607     14610     14596     14606     14611     14612
     14596     14606     14611     14613     14596     14606     14611     14614
     14597     14596     14594     14617     14597     14596     14598     14599
     14597     14596     14598     14600     14597     14596     14598     14601
     14597     14596     14606     14604     14597     14596     14606     14607
     14597     14596     14606     14611     14598     14596     14594     14617
     14598     14596     14606     14604     14598     14596     14606     14607
     14598     14596     14606     14611     14598     14601     14604     14605
     14598     14601     14604     14606     14598     14601     14604     14630
     14599     14598     14596     14606     14599     14598     14601     14602
     14599     14598     14601     14603     14599     14598     14601     14604
     14600     14598     14596     14606     14600     14598     14601     14602
     14600     14598     14601     14603     14600     14598     14601     14604
     14601     14598     14596     14606     14601     14604     14606     14607
     14601     14604     14606     14611     14601     14604     14630     14631
     14601     14604     14630     14632     14601     14604     14630     14636
     14602     14601     14604     14605     14602     14601     14604     14606
     14602     14601     14604     14630     14603     14601     14604     14605
     14603     14601     14604     14606     14603     14601     14604     14630
     14604     14606     14607     14608     14604     14606     14607     14609
     14604     14606     14607     14610     14604     14606     14611     14612
     14604     14606     14611     14613     14604     14606     14611     14614
     14604     14630     14632     14633     14604     14630     14632     14634
     14604     14630     14632     14635     14604     14630     14636     14637
     14604     14630     14636     14638     14604     14630     14636     14639
     14605     14604     14606     14607     14605     14604     14606     14611
     14605     14604     14630     14631     14605     14604     14630     14632
     14605     14604     14630     14636     14606     14596     14594     14617
     14606     14604     14630     14631     14606     14604     14630     14632
     14606     14604     14630     14636     14606     14611     14614     14615
     14606     14611     14614     14616     14606     14611     14614     14617
     14607     14606     14604     14630     14607     14606     14611     14612
     14607     14606     14611     14613     14607     14606     14611     14614
     14608     14607     14606     14611     14609     14607     14606     14611
     14610     14607     14606     14611     14611     14606     14604     14630
     14611     14614     14617     14618     14611     14614     14617     14619
     14612     14611     14614     14615     14612     14611     14614     14616
     14612     14611     14614     14617     14613     14611     14614     14615
     14613     14611     14614     14616     14613     14611     14614     14617
     14614     14617     14619     14620     14614     14617     14619     14624
     14615     14614     14617     14618     14615     14614     14617     14619
     14616     14614     14617     14618     14616     14614     14617     14619
     14617     14619     14620     14621     14617     14619     14620     14622
     14617     14619     14620     14623     14617     14619     14624     14625
     14617     14619     14624     14626     14617     14619     14624     14627
     14618     14617     14619     14620     14618     14617     14619     14624
     14619     14624     14627     14628     14619     14624     14627     14629
     14620     14619     14624     14625     14620     14619     14624     14626
     14620     14619     14624     14627     14621     14620     14619     14624
     14622     14620     14619     14624     14623     14620     14619     14624
     14625     14624     14627     14628     14625     14624     14627     14629
     14626     14624     14627     14628     14626     14624     14627     14629
     14630     14636     14639     14640     14630     14636     14639     14641
     14630     14636     14639     14642     14631     14630     14632     14633
     14631     14630     14632     14634     14631     14630     14632     14635
     14631     14630     14636     14637     14631     14630     14636     14638
     14631     14630     14636     14639     14632     14630     14636     14637
     14632     14630     14636     14638     14632     14630     14636     14639
     14633     14632     14630     14636     14634     14632     14630     14636
     14635     14632     14630     14636     14636     14639     14642     14643
     14636     14639     14642     14644     14636     14639     14642     14645
     14637     14636     14639     14640     14637     14636     14639     14641
     14637     14636     14639     14642     14638     14636     14639     14640
     14638     14636     14639     14641     14638     14636     14639     14642
     14639     14642     14645     14646     14639     14642     14645     14647
     14639     14642     14645     14651     14640     14639     14642     14643
     14640     14639     14642     14644     14640     14639     14642     14645
     14641     14639     14642     14643     14641     14639     14642     14644
     14641     14639     14642     14645     14642     14645     14647     14648
     14642     14645     14647     14649     14642     14645     14647     14650
     14642     14645     14651     14652     14642     14645     14651     14653
     14642     14645     14651     14654     14643     14642     14645     14646
     14643     14642     14645     14647     14643     14642     14645     14651
     14644     14642     14645     14646     14644     14642     14645     14647
     14644     14642     14645     14651     14646     14645     14647     14648
     14646     14645     14647     14649     14646     14645     14647     14650
     14646     14645     14651     14652     14646     14645     14651     14653
     14646     14645     14651     14654     14647     14645     14651     14652
     14647     14645     14651     14653     14647     14645     14651     14654
     14648     14647     14645     14651     14649     14647     14645     14651
     14650     14647     14645     14651     14655     14659     14662     14663
     14655     14659     14662     14664     14655     14659     14662     14668
     14656     14655     14659     14660     14656     14655     14659     14661
     14656     14655     14659     14662     14657     14655     14659     14660
     14657     14655     14659     14661     14657     14655     14659     14662
     14658     14655     14659     14660     14658     14655     14659     14661
     14658     14655     14659     14662     14659     14662     14668     14665
     14660     14659     14662     14663     14660     14659     14662     14664
     14660     14659     14662     14668     14661     14659     14662     14663
     14661     14659     14662     14664     14661     14659     14662     14668
     14662     14668     14665     14666     14662     14668     14665     14667
     14662     14668     14665     14669     14663     14662     14668     14665
     14664     14662     14668     14665     14665     14669     14670     14671
     14665     14669     14670     14672     14665     14669     14670     14673
     14666     14665     14669     14670     14667     14665     14669     14670
     14668     14665     14669     14670     14669     14670     14673     14674
     14669     14670     14673     14675     14669     14670     14673     14681
     14670     14673     14675     14676     14670     14673     14681     14682
     14670     14673     14681     14683     14670     14673     14681     14684
     14671     14670     14673     14674     14671     14670     14673     14675
     14671     14670     14673     14681     14672     14670     14673     14674
     14672     14670     14673     14675     14672     14670     14673     14681
     14673     14675     14676     14677     14673     14675     14676     14678
     14673     14681     14684     14685     14674     14673     14675     14676
     14674     14673     14681     14682     14674     14673     14681     14683
     14674     14673     14681     14684     14675     14673     14681     14682
     14675     14673     14681     14683     14675     14673     14681     14684
     14675     14676     14678     14679     14675     14676     14678     14680
     14675     14676     14678     14690     14676     14675     14673     14681
     14676     14678     14690     14691     14676     14678     14690     14692
     14676     14678     14690     14693     14677     14676     14678     14679
     14677     14676     14678     14680     14677     14676     14678     14690
     14678     14690     14693     14694     14678     14690     14693     14695
     14678     14690     14693     14696     14679     14678     14690     14691
     14679     14678     14690     14692     14679     14678     14690     14693
     14680     14678     14690     14691     14680     14678     14690     14692
     14680     14678     14690     14693     14681     14684     14685     14686
     14681     14684     14685     14687     14682     14681     14684     14685
     14683     14681     14684     14685     14684     14685     14687     14688
     14684     14685     14687     14689     14684     14685     14687     14737
     14685     14687     14737     14738     14685     14687     14737     14739
     14685     14687     14737     14740     14686     14685     14687     14688
     14686     14685     14687     14689     14686     14685     14687     14737
     14687     14737     14740     14741     14687     14737     14740     14742
     14687     14737     14740     14743     14688     14687     14737     14738
     14688     14687     14737     14739     14688     14687     14737     14740
     14689     14687     14737     14738     14689     14687     14737     14739
     14689     14687     14737     14740     14690     14693     14696     14697
     14690     14693     14696     14698     14691     14690     14693     14694
     14691     14690     14693     14695     14691     14690     14693     14696
     14692     14690     14693     14694     14692     14690     14693     14695
     14692     14690     14693     14696     14693     14696     14698     14699
     14693     14696     14698     14700     14694     14693     14696     14697
     14694     14693     14696     14698     14695     14693     14696     14697
     14695     14693     14696     14698     14696     14698     14700     14701
     14696     14698     14700     14702     14696     14698     14700     14703
     14697     14696     14698     14699     14697     14696     14698     14700
     14698     14700     14703     14704     14698     14700     14703     14705
     14699     14698     14700     14701     14699     14698     14700     14702
     14699     14698     14700     14703     14700     14703     14705     14706
     14700     14703     14705     14707     14701     14700     14703     14704
     14701     14700     14703     14705     14702     14700     14703     14704
     14702     14700     14703     14705     14703     14705     14707     14708
     14703     14705     14707     14709     14703     14705     14707     14710
     14704     14703     14705     14706     14704     14703     14705     14707
     14705     14707     14710     14711     14705     14707     14710     14712
     14706     14705     14707     14708     14706     14705     14707     14709
     14706     14705     14707     14710     14707     14710     14712     14713
     14707     14710     14712     14714     14708     14707     14710     14711
     14708     14707     14710     14712     14709     14707     14710     14711
     14709     14707     14710     14712     14710     14712     14714     14715
     14710     14712     14714     14716     14710     14712     14714     14717
     14711     14710     14712     14713     14711     14710     14712     14714
     14712     14714     14717     14718     14712     14714     14717     14719
     14713     14712     14714     14715     14713     14712     14714     14716
     14713     14712     14714     14717     14714     14717     14719     14720
     14714     14717     14719     14721     14715     14714     14717     14718
     14715     14714     14717     14719     14716     14714     14717     14718
     14716     14714     14717     14719     14717     14719     14721     14722
     14717     14719     14721     14723     14717     14719     14721     14724
     14718     14717     14719     14720     14718     14717     14719     14721
     14719     14721     14724     14725     14719     14721     14724     14726
     14719     14721     14724     14727     14720     14719     14721     14722
     14720     14719     14721     14723     14720     14719     14721     14724
     14721     14724     14727     14728     14721     14724     14727     14729
     14721     14724     14727     14730     14722     14721     14724     14725
     14722     14721     14724     14726     14722     14721     14724     14727
     14723     14721     14724     14725     14723     14721     14724     14726
     14723     14721     14724     14727     14724     14727     14730     14731
     14724     14727     14730     14732     14724     14727     14730     14733
     14725     14724     14727     14728     14725     14724     14727     14729
     14725     14724     14727     14730     14726     14724     14727     14728
     14726     14724     14727     14729     14726     14724     14727     14730
     14727     14730     14733     14734     14727     14730     14733     14735
     14727     14730     14733     14736     14728     14727     14730     14731
     14728     14727     14730     14732     14728     14727     14730     14733
     14729     14727     14730     14731     14729     14727     14730     14732
     14729     14727     14730     14733     14731     14730     14733     14734
     14731     14730     14733     14735     14731     14730     14733     14736
     14732     14730     14733     14734     14732     14730     14733     14735
     14732     14730     14733     14736     14737     14740     14743     14744
     14737     14740     14743     14745     14737     14740     14743     14746
     14738     14737     14740     14741     14738     14737     14740     14742
     14738     14737     14740     14743     14739     14737     14740     14741
     14739     14737     14740     14742     14739     14737     14740     14743
     14740     14743     14746     14747     14740     14743     14746     14748
     14740     14743     14746     14749     14741     14740     14743     14744
     14741     14740     14743     14745     14741     14740     14743     14746
     14742     14740     14743     14744     14742     14740     14743     14745
     14742     14740     14743     14746     14743     14746     14749     14750
     14743     14746     14749     14751     14743     14746     14749     14752
     14744     14743     14746     14747     14744     14743     14746     14748
     14744     14743     14746     14749     14745     14743     14746     14747
     14745     14743     14746     14748     14745     14743     14746     14749
     14746     14749     14752     14753     14746     14749     14752     14754
     14746     14749     14752     14755     14747     14746     14749     14750
     14747     14746     14749     14751     14747     14746     14749     14752
     14748     14746     14749     14750     14748     14746     14749     14751
     14748     14746     14749     14752     14749     14752     14755     14756
     14749     14752     14755     14757     14749     14752     14755     14758
     14750     14749     14752     14753     14750     14749     14752     14754
     14750     14749     14752     14755     14751     14749     14752     14753
     14751     14749     14752     14754     14751     14749     14752     14755
     14752     14755     14758     14759     14752     14755     14758     14760
     14752     14755     14758     14761     14753     14752     14755     14756
     14753     14752     14755     14757     14753     14752     14755     14758
     14754     14752     14755     14756     14754     14752     14755     14757
     14754     14752     14755     14758     14755     14758     14761     14762
     14755     14758     14761     14763     14755     14758     14761     14764
     14756     14755     14758     14759     14756     14755     14758     14760
     14756     14755     14758     14761     14757     14755     14758     14759
     14757     14755     14758     14760     14757     14755     14758     14761
     14758     14761     14764     14765     14758     14761     14764     14766
     14758     14761     14764     14767     14759     14758     14761     14762
     14759     14758     14761     14763     14759     14758     14761     14764
     14760     14758     14761     14762     14760     14758     14761     14763
     14760     14758     14761     14764     14761     14764     14767     14768
     14761     14764     14767     14769     14761     14764     14767     14770
     14762     14761     14764     14765     14762     14761     14764     14766
     14762     14761     14764     14767     14763     14761     14764     14765
     14763     14761     14764     14766     14763     14761     14764     14767
     14764     14767     14770     14771     14764     14767     14770     14772
     14764     14767     14770     14773     14765     14764     14767     14768
     14765     14764     14767     14769     14765     14764     14767     14770
     14766     14764     14767     14768     14766     14764     14767     14769
     14766     14764     14767     14770     14767     14770     14773     14774
     14767     14770     14773     14775     14767     14770     14773     14776
     14768     14767     14770     14771     14768     14767     14770     14772
     14768     14767     14770     14773     14769     14767     14770     14771
     14769     14767     14770     14772     14769     14767     14770     14773
     14770     14773     14776     14777     14770     14773     14776     14778
     14770     14773     14776     14779     14771     14770     14773     14774
     14771     14770     14773     14775     14771     14770     14773     14776
     14772     14770     14773     14774     14772     14770     14773     14775
     14772     14770     14773     14776     14773     14776     14779     14780
     14773     14776     14779     14781     14773     14776     14779     14782
     14774     14773     14776     14777     14774     14773     14776     14778
     14774     14773     14776     14779     14775     14773     14776     14777
     14775     14773     14776     14778     14775     14773     14776     14779
     14776     14779     14782     14783     14776     14779     14782     14784
     14776     14779     14782     14785     14777     14776     14779     14780
     14777     14776     14779     14781     14777     14776     14779     14782
     14778     14776     14779     14780     14778     14776     14779     14781
     14778     14776     14779     14782     14780     14779     14782     14783
     14780     14779     14782     14784     14780     14779     14782     14785
     14781     14779     14782     14783     14781     14779     14782     14784
     14781     14779     14782     14785     14786     14790     14793     14794
     14786     14790     14793     14824     14786     14832     14829     14824
     14786     14832     14829     14830     14786     14832     14829     14831
     14787     14786     14788     14789     14787     14786     14790     14791
     14787     14786     14790     14792     14787     14786     14790     14793
     14787     14786     14832     14829     14787     14786     14832     14833
     14787     14786     14832     14834     14788     14786     14790     14791
     14788     14786     14790     14792     14788     14786     14790     14793
     14788     14786     14832     14829     14788     14786     14832     14833
     14788     14786     14832     14834     14789     14788     14786     14790
     14789     14788     14786     14832     14790     14786     14832     14829
     14790     14786     14832     14833     14790     14786     14832     14834
     14790     14793     14794     14795     14790     14793     14794     14796
     14790     14793     14824     14822     14790     14793     14824     14825
     14790     14793     14824     14829     14791     14790     14786     14832
     14791     14790     14793     14794     14791     14790     14793     14824
     14792     14790     14786     14832     14792     14790     14793     14794
     14792     14790     14793     14824     14793     14790     14786     14832
     14793     14794     14796     14797     14793     14794     14796     14798
     14793     14794     14796     14799     14793     14824     14822     14799
     14793     14824     14822     14819     14793     14824     14822     14823
     14793     14824     14825     14826     14793     14824     14825     14827
     14793     14824     14825     14828     14793     14824     14829     14830
     14793     14824     14829     14831     14793     14824     14829     14832
     14794     14793     14824     14822     14794     14793     14824     14825
     14794     14793     14824     14829     14794     14796     14799     14800
     14794     14796     14799     14801     14794     14796     14799     14822
     14795     14794     14793     14824     14795     14794     14796     14797
     14795     14794     14796     14798     14795     14794     14796     14799
     14796     14794     14793     14824     14796     14799     14801     14802
     14796     14799     14801     14803     14796     14799     14801     14811
     14796     14799     14822     14819     14796     14799     14822     14823
     14796     14799     14822     14824     14797     14796     14799     14800
     14797     14796     14799     14801     14797     14796     14799     14822
     14798     14796     14799     14800     14798     14796     14799     14801
     14798     14796     14799     14822     14799     14801     14803     14804
     14799     14801     14803     14805     14799     14801     14803     14806
     14799     14801     14811     14809     14799     14801     14811     14812
     14799     14801     14811     14816     14799     14822     14819     14816
     14799     14822     14819     14820     14799     14822     14819     14821
     14799     14822     14824     14825     14799     14822     14824     14829
     14800     14799     14801     14802     14800     14799     14801     14803
     14800     14799     14801     14811     14800     14799     14822     14819
     14800     14799     14822     14823     14800     14799     14822     14824
     14801     14799     14822     14819     14801     14799     14822     14823
     14801     14799     14822     14824     14801     14803     14806     14807
     14801     14803     14806     14808     14801     14803     14806     14809
     14801     14811     14809     14806     14801     14811     14809     14810
     14801     14811     14809     14835     14801     14811     14812     14813
     14801     14811     14812     14814     14801     14811     14812     14815
     14801     14811     14816     14817     14801     14811     14816     14818
     14801     14811     14816     14819     14802     14801     14799     14822
     14802     14801     14803     14804     14802     14801     14803     14805
     14802     14801     14803     14806     14802     14801     14811     14809
     14802     14801     14811     14812     14802     14801     14811     14816
     14803     14801     14799     14822     14803     14801     14811     14809
     14803     14801     14811     14812     14803     14801     14811     14816
     14803     14806     14809     14810     14803     14806     14809     14811
     14803     14806     14809     14835     14804     14803     14801     14811
     14804     14803     14806     14807     14804     14803     14806     14808
     14804     14803     14806     14809     14805     14803     14801     14811
     14805     14803     14806     14807     14805     14803     14806     14808
     14805     14803     14806     14809     14806     14803     14801     14811
     14806     14809     14811     14812     14806     14809     14811     14816
     14806     14809     14835     14836     14806     14809     14835     14837
     14806     14809     14835     14841     14807     14806     14809     14810
     14807     14806     14809     14811     14807     14806     14809     14835
     14808     14806     14809     14810     14808     14806     14809     14811
     14808     14806     14809     14835     14809     14811     14812     14813
     14809     14811     14812     14814     14809     14811     14812     14815
     14809     14811     14816     14817     14809     14811     14816     14818
     14809     14811     14816     14819     14809     14835     14837     14838
     14809     14835     14837     14839     14809     14835     14837     14840
     14809     14835     14841     14842     14809     14835     14841     14843
     14809     14835     14841     14844     14810     14809     14811     14812
     14810     14809     14811     14816     14810     14809     14835     14836
     14810     14809     14835     14837     14810     14809     14835     14841
     14811     14801     14799     14822     14811     14809     14835     14836
     14811     14809     14835     14837     14811     14809     14835     14841
     14811     14816     14819     14820     14811     14816     14819     14821
     14811     14816     14819     14822     14812     14811     14809     14835
     14812     14811     14816     14817     14812     14811     14816     14818
     14812     14811     14816     14819     14813     14812     14811     14816
     14814     14812     14811     14816     14815     14812     14811     14816
     14816     14811     14809     14835     14816     14819     14822     14823
     14816     14819     14822     14824     14817     14816     14819     14820
     14817     14816     14819     14821     14817     14816     14819     14822
     14818     14816     14819     14820     14818     14816     14819     14821
     14818     14816     14819     14822     14819     14822     14824     14825
     14819     14822     14824     14829     14820     14819     14822     14823
     14820     14819     14822     14824     14821     14819     14822     14823
     14821     14819     14822     14824     14822     14824     14825     14826
     14822     14824     14825     14827     14822     14824     14825     14828
     14822     14824     14829     14830     14822     14824     14829     14831
     14822     14824     14829     14832     14823     14822     14824     14825
     14823     14822     14824     14829     14824     14829     14832     14833
     14824     14829     14832     14834     14825     14824     14829     14830
     14825     14824     14829     14831     14825     14824     14829     14832
     14826     14825     14824     14829     14827     14825     14824     14829
     14828     14825     14824     14829     14830     14829     14832     14833
     14830     14829     14832     14834     14831     14829     14832     14833
     14831     14829     14832     14834     14835     14841     14844     14845
     14835     14841     14844     14846     14835     14841     14844     14847
     14836     14835     14837     14838     14836     14835     14837     14839
     14836     14835     14837     14840     14836     14835     14841     14842
     14836     14835     14841     14843     14836     14835     14841     14844
     14837     14835     14841     14842     14837     14835     14841     14843
     14837     14835     14841     14844     14838     14837     14835     14841
     14839     14837     14835     14841     14840     14837     14835     14841
     14841     14844     14847     14848     14841     14844     14847     14849
     14841     14844     14847     14850     14842     14841     14844     14845
     14842     14841     14844     14846     14842     14841     14844     14847
     14843     14841     14844     14845     14843     14841     14844     14846
     14843     14841     14844     14847     14844     14847     14850     14851
     14844     14847     14850     14852     14844     14847     14850     14856
     14845     14844     14847     14848     14845     14844     14847     14849
     14845     14844     14847     14850     14846     14844     14847     14848
     14846     14844     14847     14849     14846     14844     14847     14850
     14847     14850     14852     14853     14847     14850     14852     14854
     14847     14850     14852     14855     14847     14850     14856     14857
     14847     14850     14856     14858     14847     14850     14856     14859
     14848     14847     14850     14851     14848     14847     14850     14852
     14848     14847     14850     14856     14849     14847     14850     14851
     14849     14847     14850     14852     14849     14847     14850     14856
     14851     14850     14852     14853     14851     14850     14852     14854
     14851     14850     14852     14855     14851     14850     14856     14857
     14851     14850     14856     14858     14851     14850     14856     14859
     14852     14850     14856     14857     14852     14850     14856     14858
     14852     14850     14856     14859     14853     14852     14850     14856
     14854     14852     14850     14856     14855     14852     14850     14856
     14860     14864     14866     14867     14860     14864     14866     14868
     14860     14864     14869     14870     14860     14864     14869     14871
     14860     14864     14869     14875     14861     14860     14864     14865
     14861     14860     14864     14866     14861     14860     14864     14869
     14862     14860     14864     14865     14862     14860     14864     14866
     14862     14860     14864     14869     14863     14860     14864     14865
     14863     14860     14864     14866     14863     14860     14864     14869
     14864     14869     14875     14872     14865     14864     14866     14867
     14865     14864     14866     14868     14865     14864     14869     14870
     14865     14864     14869     14871     14865     14864     14869     14875
     14866     14864     14869     14870     14866     14864     14869     14871
     14866     14864     14869     14875     14867     14866     14864     14869
     14868     14866     14864     14869     14869     14875     14872     14873
     14869     14875     14872     14874     14869     14875     14872     14876
     14870     14869     14875     14872     14871     14869     14875     14872
     14872     14876     14877     14878     14872     14876     14877     14879
     14872     14876     14877     14880     14873     14872     14876     14877
     14874     14872     14876     14877     14875     14872     14876     14877
     14876     14877     14880     14881     14876     14877     14880     14882
     14876     14877     14880     14888     14877     14880     14882     14883
     14877     14880     14888     14889     14877     14880     14888     14890
     14877     14880     14888     14891     14878     14877     14880     14881
     14878     14877     14880     14882     14878     14877     14880     14888
     14879     14877     14880     14881     14879     14877     14880     14882
     14879     14877     14880     14888     14880     14882     14883     14884
     14880     14882     14883     14885     14880     14888     14891     14892
     14881     14880     14882     14883     14881     14880     14888     14889
     14881     14880     14888     14890     14881     14880     14888     14891
     14882     14880     14888     14889     14882     14880     14888     14890
     14882     14880     14888     14891     14882     14883     14885     14886
     14882     14883     14885     14887     14882     14883     14885     14897
     14883     14882     14880     14888     14883     14885     14897     14898
     14883     14885     14897     14899     14883     14885     14897     14900
     14884     14883     14885     14886     14884     14883     14885     14887
     14884     14883     14885     14897     14885     14897     14900     14901
     14885     14897     14900     14902     14885     14897     14900     14903
     14886     14885     14897     14898     14886     14885     14897     14899
     14886     14885     14897     14900     14887     14885     14897     14898
     14887     14885     14897     14899     14887     14885     14897     14900
     14888     14891     14892     14893     14888     14891     14892     14894
     14889     14888     14891     14892     14890     14888     14891     14892
     14891     14892     14894     14895     14891     14892     14894     14896
     14891     14892     14894     14944     14892     14894     14944     14945
     14892     14894     14944     14946     14892     14894     14944     14947
     14893     14892     14894     14895     14893     14892     14894     14896
     14893     14892     14894     14944     14894     14944     14947     14948
     14894     14944     14947     14949     14894     14944     14947     14950
     14895     14894     14944     14945     14895     14894     14944     14946
     14895     14894     14944     14947     14896     14894     14944     14945
     14896     14894     14944     14946     14896     14894     14944     14947
     14897     14900     14903     14904     14897     14900     14903     14905
     14898     14897     14900     14901     14898     14897     14900     14902
     14898     14897     14900     14903     14899     14897     14900     14901
     14899     14897     14900     14902     14899     14897     14900     14903
     14900     14903     14905     14906     14900     14903     14905     14907
     14901     14900     14903     14904     14901     14900     14903     14905
     14902     14900     14903     14904     14902     14900     14903     14905
     14903     14905     14907     14908     14903     14905     14907     14909
     14903     14905     14907     14910     14904     14903     14905     14906
     14904     14903     14905     14907     14905     14907     14910     14911
     14905     14907     14910     14912     14906     14905     14907     14908
     14906     14905     14907     14909     14906     14905     14907     14910
     14907     14910     14912     14913     14907     14910     14912     14914
     14908     14907     14910     14911     14908     14907     14910     14912
     14909     14907     14910     14911     14909     14907     14910     14912
     14910     14912     14914     14915     14910     14912     14914     14916
     14910     14912     14914     14917     14911     14910     14912     14913
     14911     14910     14912     14914     14912     14914     14917     14918
     14912     14914     14917     14919     14913     14912     14914     14915
     14913     14912     14914     14916     14913     14912     14914     14917
     14914     14917     14919     14920     14914     14917     14919     14921
     14915     14914     14917     14918     14915     14914     14917     14919
     14916     14914     14917     14918     14916     14914     14917     14919
     14917     14919     14921     14922     14917     14919     14921     14923
     14917     14919     14921     14924     14918     14917     14919     14920
     14918     14917     14919     14921     14919     14921     14924     14925
     14919     14921     14924     14926     14920     14919     14921     14922
     14920     14919     14921     14923     14920     14919     14921     14924
     14921     14924     14926     14927     14921     14924     14926     14928
     14922     14921     14924     14925     14922     14921     14924     14926
     14923     14921     14924     14925     14923     14921     14924     14926
     14924     14926     14928     14929     14924     14926     14928     14930
     14924     14926     14928     14931     14925     14924     14926     14927
     14925     14924     14926     14928     14926     14928     14931     14932
     14926     14928     14931     14933     14926     14928     14931     14934
     14927     14926     14928     14929     14927     14926     14928     14930
     14927     14926     14928     14931     14928     14931     14934     14935
     14928     14931     14934     14936     14928     14931     14934     14937
     14929     14928     14931     14932     14929     14928     14931     14933
     14929     14928     14931     14934     14930     14928     14931     14932
     14930     14928     14931     14933     14930     14928     14931     14934
     14931     14934     14937     14938     14931     14934     14937     14939
     14931     14934     14937     14940     14932     14931     14934     14935
     14932     14931     14934     14936     14932     14931     14934     14937
     14933     14931     14934     14935     14933     14931     14934     14936
     14933     14931     14934     14937     14934     14937     14940     14941
     14934     14937     14940     14942     14934     14937     14940     14943
     14935     14934     14937     14938     14935     14934     14937     14939
     14935     14934     14937     14940     14936     14934     14937     14938
     14936     14934     14937     14939     14936     14934     14937     14940
     14938     14937     14940     14941     14938     14937     14940     14942
     14938     14937     14940     14943     14939     14937     14940     14941
     14939     14937     14940     14942     14939     14937     14940     14943
     14944     14947     14950     14951     14944     14947     14950     14952
     14944     14947     14950     14953     14945     14944     14947     14948
     14945     14944     14947     14949     14945     14944     14947     14950
     14946     14944     14947     14948     14946     14944     14947     14949
     14946     14944     14947     14950     14947     14950     14953     14954
     14947     14950     14953     14955     14947     14950     14953     14956
     14948     14947     14950     14951     14948     14947     14950     14952
     14948     14947     14950     14953     14949     14947     14950     14951
     14949     14947     14950     14952     14949     14947     14950     14953
     14950     14953     14956     14957     14950     14953     14956     14958
     14950     14953     14956     14959     14951     14950     14953     14954
     14951     14950     14953     14955     14951     14950     14953     14956
     14952     14950     14953     14954     14952     14950     14953     14955
     14952     14950     14953     14956     14953     14956     14959     14960
     14953     14956     14959     14961     14953     14956     14959     14962
     14954     14953     14956     14957     14954     14953     14956     14958
     14954     14953     14956     14959     14955     14953     14956     14957
     14955     14953     14956     14958     14955     14953     14956     14959
     14956     14959     14962     14963     14956     14959     14962     14964
     14956     14959     14962     14965     14957     14956     14959     14960
     14957     14956     14959     14961     14957     14956     14959     14962
     14958     14956     14959     14960     14958     14956     14959     14961
     14958     14956     14959     14962     14959     14962     14965     14966
     14959     14962     14965     14967     14959     14962     14965     14968
     14960     14959     14962     14963     14960     14959     14962     14964
     14960     14959     14962     14965     14961     14959     14962     14963
     14961     14959     14962     14964     14961     14959     14962     14965
     14962     14965     14968     14969     14962     14965     14968     14970
     14962     14965     14968     14971     14963     14962     14965     14966
     14963     14962     14965     14967     14963     14962     14965     14968
     14964     14962     14965     14966     14964     14962     14965     14967
     14964     14962     14965     14968     14965     14968     14971     14972
     14965     14968     14971     14973     14965     14968     14971     14974
     14966     14965     14968     14969     14966     14965     14968     14970
     14966     14965     14968     14971     14967     14965     14968     14969
     14967     14965     14968     14970     14967     14965     14968     14971
     14968     14971     14974     14975     14968     14971     14974     14976
     14968     14971     14974     14977     14969     14968     14971     14972
     14969     14968     14971     14973     14969     14968     14971     14974
     14970     14968     14971     14972     14970     14968     14971     14973
     14970     14968     14971     14974     14971     14974     14977     14978
     14971     14974     14977     14979     14971     14974     14977     14980
     14972     14971     14974     14975     14972     14971     14974     14976
     14972     14971     14974     14977     14973     14971     14974     14975
     14973     14971     14974     14976     14973     14971     14974     14977
     14974     14977     14980     14981     14974     14977     14980     14982
     14974     14977     14980     14983     14975     14974     14977     14978
     14975     14974     14977     14979     14975     14974     14977     14980
     14976     14974     14977     14978     14976     14974     14977     14979
     14976     14974     14977     14980     14977     14980     14983     14984
     14977     14980     14983     14985     14977     14980     14983     14986
     14978     14977     14980     14981     14978     14977     14980     14982
     14978     14977     14980     14983     14979     14977     14980     14981
     14979     14977     14980     14982     14979     14977     14980     14983
     14980     14983     14986     14987     14980     14983     14986     14988
     14980     14983     14986     14989     14981     14980     14983     14984
     14981     14980     14983     14985     14981     14980     14983     14986
     14982     14980     14983     14984     14982     14980     14983     14985
     14982     14980     14983     14986     14983     14986     14989     14990
     14983     14986     14989     14991     14983     14986     14989     14992
     14984     14983     14986     14987     14984     14983     14986     14988
     14984     14983     14986     14989     14985     14983     14986     14987
     14985     14983     14986     14988     14985     14983     14986     14989
     14987     14986     14989     14990     14987     14986     14989     14991
     14987     14986     14989     14992     14988     14986     14989     14990
     14988     14986     14989     14991     14988     14986     14989     14992
     14993     15006     15009     15010     14993     15006     15009     15011
     14993     15006     15009     15016     14994     14993     14998     14999
     14994     14993     14998     15000     14994     14993     14998     15001
     14994     14993     15002     15003     14994     14993     15002     15004
     14994     14993     15002     15005     14994     14993     15006     15007
     14994     14993     15006     15008     14994     14993     15006     15009
     14995     14994     14993     14998     14995     14994     14993     15002
     14995     14994     14993     15006     14996     14994     14993     14998
     14996     14994     14993     15002     14996     14994     14993     15006
     14997     14994     14993     14998     14997     14994     14993     15002
     14997     14994     14993     15006     14998     14993     15002     15003
     14998     14993     15002     15004     14998     14993     15002     15005
     14998     14993     15006     15007     14998     14993     15006     15008
     14998     14993     15006     15009     14999     14998     14993     15002
     14999     14998     14993     15006     15000     14998     14993     15002
     15000     14998     14993     15006     15001     14998     14993     15002
     15001     14998     14993     15006     15002     14993     15006     15007
     15002     14993     15006     15008     15002     14993     15006     15009
     15003     15002     14993     15006     15004     15002     14993     15006
     15005     15002     14993     15006     15006     15009     15016     15012
     15007     15006     15009     15010     15007     15006     15009     15011
     15007     15006     15009     15016     15008     15006     15009     15010
     15008     15006     15009     15011     15008     15006     15009     15016
     15009     15016     15012     15013     15009     15016     15012     15014
     15009     15016     15012     15015     15010     15009     15016     15012
     15011     15009     15016     15012     15012     15015     15017     15018
     15012     15015     15017     15019     15012     15015     15017     15022
     15013     15012     15015     15017     15014     15012     15015     15017
     15015     15017     15022     15020     15015     15017     15022     15023
     15015     15017     15022     15024     15016     15012     15015     15017
     15017     15022     15020     15021     15017     15022     15020     15072
     15017     15022     15024     15025     15017     15022     15024     15026
     15017     15022     15024     15028     15018     15017     15022     15020
     15018     15017     15022     15023     15018     15017     15022     15024
     15019     15017     15022     15020     15019     15017     15022     15023
     15019     15017     15022     15024     15020     15022     15024     15025
     15020     15022     15024     15026     15020     15022     15024     15028
     15020     15072     15074     15075     15020     15072     15074     15076
     15020     15072     15074     15077     15021     15020     15022     15023
     15021     15020     15022     15024     15021     15020     15072     15073
     15021     15020     15072     15074     15022     15020     15072     15073
     15022     15020     15072     15074     15022     15024     15026     15027
     15022     15024     15028     15029     15022     15024     15028     15030
     15023     15022     15020     15072     15023     15022     15024     15025
     15023     15022     15024     15026     15023     15022     15024     15028
     15024     15022     15020     15072     15024     15028     15030     15031
     15024     15028     15030     15032     15025     15024     15026     15027
     15025     15024     15028     15029     15025     15024     15028     15030
     15026     15024     15028     15029     15026     15024     15028     15030
     15027     15026     15024     15028     15028     15030     15032     15033
     15028     15030     15032     15034     15028     15030     15032     15035
     15029     15028     15030     15031     15029     15028     15030     15032
     15030     15032     15035     15036     15030     15032     15035     15037
     15030     15032     15035     15038     15031     15030     15032     15033
     15031     15030     15032     15034     15031     15030     15032     15035
     15032     15035     15038     15039     15032     15035     15038     15040
     15032     15035     15038     15041     15033     15032     15035     15036
     15033     15032     15035     15037     15033     15032     15035     15038
     15034     15032     15035     15036     15034     15032     15035     15037
     15034     15032     15035     15038     15035     15038     15041     15042
     15035     15038     15041     15043     15035     15038     15041     15044
     15036     15035     15038     15039     15036     15035     15038     15040
     15036     15035     15038     15041     15037     15035     15038     15039
     15037     15035     15038     15040     15037     15035     15038     15041
     15038     15041     15044     15045     15038     15041     15044     15046
     15038     15041     15044     15047     15039     15038     15041     15042
     15039     15038     15041     15043     15039     15038     15041     15044
     15040     15038     15041     15042     15040     15038     15041     15043
     15040     15038     15041     15044     15041     15044     15047     15048
     15041     15044     15047     15049     15041     15044     15047     15050
     15042     15041     15044     15045     15042     15041     15044     15046
     15042     15041     15044     15047     15043     15041     15044     15045
     15043     15041     15044     15046     15043     15041     15044     15047
     15044     15047     15050     15051     15044     15047     15050     15052
     15044     15047     15050     15053     15045     15044     15047     15048
     15045     15044     15047     15049     15045     15044     15047     15050
     15046     15044     15047     15048     15046     15044     15047     15049
     15046     15044     15047     15050     15047     15050     15053     15054
     15047     15050     15053     15055     15047     15050     15053     15056
     15048     15047     15050     15051     15048     15047     15050     15052
     15048     15047     15050     15053     15049     15047     15050     15051
     15049     15047     15050     15052     15049     15047     15050     15053
     15050     15053     15056     15057     15050     15053     15056     15058
     15050     15053     15056     15059     15051     15050     15053     15054
     15051     15050     15053     15055     15051     15050     15053     15056
     15052     15050     15053     15054     15052     15050     15053     15055
     15052     15050     15053     15056     15053     15056     15059     15060
     15053     15056     15059     15061     15053     15056     15059     15062
     15054     15053     15056     15057     15054     15053     15056     15058
     15054     15053     15056     15059     15055     15053     15056     15057
     15055     15053     15056     15058     15055     15053     15056     15059
     15056     15059     15062     15063     15056     15059     15062     15064
     15056     15059     15062     15065     15057     15056     15059     15060
     15057     15056     15059     15061     15057     15056     15059     15062
     15058     15056     15059     15060     15058     15056     15059     15061
     15058     15056     15059     15062     15059     15062     15065     15066
     15059     15062     15065     15067     15059     15062     15065     15068
     15060     15059     15062     15063     15060     15059     15062     15064
     15060     15059     15062     15065     15061     15059     15062     15063
     15061     15059     15062     15064     15061     15059     15062     15065
     15062     15065     15068     15069     15062     15065     15068     15070
     15062     15065     15068     15071     15063     15062     15065     15066
     15063     15062     15065     15067     15063     15062     15065     15068
     15064     15062     15065     15066     15064     15062     15065     15067
     15064     15062     15065     15068     15066     15065     15068     15069
     15066     15065     15068     15070     15066     15065     15068     15071
     15067     15065     15068     15069     15067     15065     15068     15070
     15067     15065     15068     15071     15072     15074     15077     15078
     15072     15074     15077     15079     15072     15074     15077     15080
     15073     15072     15074     15075     15073     15072     15074     15076
     15073     15072     15074     15077     15074     15077     15080     15081
     15074     15077     15080     15082     15074     15077     15080     15083
     15075     15074     15077     15078     15075     15074     15077     15079
     15075     15074     15077     15080     15076     15074     15077     15078
     15076     15074     15077     15079     15076     15074     15077     15080
     15077     15080     15083     15084     15077     15080     15083     15085
     15077     15080     15083     15086     15078     15077     15080     15081
     15078     15077     15080     15082     15078     15077     15080     15083
     15079     15077     15080     15081     15079     15077     15080     15082
     15079     15077     15080     15083     15080     15083     15086     15087
     15080     15083     15086     15088     15080     15083     15086     15089
     15081     15080     15083     15084     15081     15080     15083     15085
     15081     15080     15083     15086     15082     15080     15083     15084
     15082     15080     15083     15085     15082     15080     15083     15086
     15083     15086     15089     15090     15083     15086     15089     15091
     15083     15086     15089     15092     15084     15083     15086     15087
     15084     15083     15086     15088     15084     15083     15086     15089
     15085     15083     15086     15087     15085     15083     15086     15088
     15085     15083     15086     15089     15086     15089     15092     15093
     15086     15089     15092     15094     15086     15089     15092     15095
     15087     15086     15089     15090     15087     15086     15089     15091
     15087     15086     15089     15092     15088     15086     15089     15090
     15088     15086     15089     15091     15088     15086     15089     15092
     15089     15092     15095     15096     15089     15092     15095     15097
     15090     15089     15092     15093     15090     15089     15092     15094
     15090     15089     15092     15095     15091     15089     15092     15093
     15091     15089     15092     15094     15091     15089     15092     15095
     15092     15095     15097     15098     15092     15095     15097     15099
     15093     15092     15095     15096     15093     15092     15095     15097
     15094     15092     15095     15096     15094     15092     15095     15097
     15095     15097     15099     15100     15095     15097     15099     15101
     15095     15097     15099     15102     15096     15095     15097     15098
     15096     15095     15097     15099     15097     15099     15102     15103
     15097     15099     15102     15104     15097     15099     15102     15105
     15098     15097     15099     15100     15098     15097     15099     15101
     15098     15097     15099     15102     15099     15102     15105     15106
     15099     15102     15105     15107     15099     15102     15105     15108
     15100     15099     15102     15103     15100     15099     15102     15104
     15100     15099     15102     15105     15101     15099     15102     15103
     15101     15099     15102     15104     15101     15099     15102     15105
     15102     15105     15108     15109     15102     15105     15108     15110
     15102     15105     15108     15111     15103     15102     15105     15106
     15103     15102     15105     15107     15103     15102     15105     15108
     15104     15102     15105     15106     15104     15102     15105     15107
     15104     15102     15105     15108     15105     15108     15111     15112
     15105     15108     15111     15113     15105     15108     15111     15114
     15106     15105     15108     15109     15106     15105     15108     15110
     15106     15105     15108     15111     15107     15105     15108     15109
     15107     15105     15108     15110     15107     15105     15108     15111
     15108     15111     15114     15115     15108     15111     15114     15116
     15108     15111     15114     15117     15109     15108     15111     15112
     15109     15108     15111     15113     15109     15108     15111     15114
     15110     15108     15111     15112     15110     15108     15111     15113
     15110     15108     15111     15114     15111     15114     15117     15118
     15111     15114     15117     15119     15111     15114     15117     15120
     15112     15111     15114     15115     15112     15111     15114     15116
     15112     15111     15114     15117     15113     15111     15114     15115
     15113     15111     15114     15116     15113     15111     15114     15117
     15114     15117     15120     15121     15114     15117     15120     15122
     15114     15117     15120     15123     15115     15114     15117     15118
     15115     15114     15117     15119     15115     15114     15117     15120
     15116     15114     15117     15118     15116     15114     15117     15119
     15116     15114     15117     15120     15118     15117     15120     15121
     15118     15117     15120     15122     15118     15117     15120     15123
     15119     15117     15120     15121     15119     15117     15120     15122
     15119     15117     15120     15123     15124     15137     15140     15141
     15124     15137     15140     15142     15124     15137     15140     15147
     15125     15124     15129     15130     15125     15124     15129     15131
     15125     15124     15129     15132     15125     15124     15133     15134
     15125     15124     15133     15135     15125     15124     15133     15136
     15125     15124     15137     15138     15125     15124     15137     15139
     15125     15124     15137     15140     15126     15125     15124     15129
     15126     15125     15124     15133     15126     15125     15124     15137
     15127     15125     15124     15129     15127     15125     15124     15133
     15127     15125     15124     15137     15128     15125     15124     15129
     15128     15125     15124     15133     15128     15125     15124     15137
     15129     15124     15133     15134     15129     15124     15133     15135
     15129     15124     15133     15136     15129     15124     15137     15138
     15129     15124     15137     15139     15129     15124     15137     15140
     15130     15129     15124     15133     15130     15129     15124     15137
     15131     15129     15124     15133     15131     15129     15124     15137
     15132     15129     15124     15133     15132     15129     15124     15137
     15133     15124     15137     15138     15133     15124     15137     15139
     15133     15124     15137     15140     15134     15133     15124     15137
     15135     15133     15124     15137     15136     15133     15124     15137
     15137     15140     15147     15143     15138     15137     15140     15141
     15138     15137     15140     15142     15138     15137     15140     15147
     15139     15137     15140     15141     15139     15137     15140     15142
     15139     15137     15140     15147     15140     15147     15143     15144
     15140     15147     15143     15145     15140     15147     15143     15146
     15141     15140     15147     15143     15142     15140     15147     15143
     15143     15146     15148     15149     15143     15146     15148     15150
     15143     15146     15148     15153     15144     15143     15146     15148
     15145     15143     15146     15148     15146     15148     15153     15151
     15146     15148     15153     15154     15146     15148     15153     15155
     15147     15143     15146     15148     15148     15153     15151     15152
     15148     15153     15151     15203     15148     15153     15155     15156
     15148     15153     15155     15157     15148     15153     15155     15159
     15149     15148     15153     15151     15149     15148     15153     15154
     15149     15148     15153     15155     15150     15148     15153     15151
     15150     15148     15153     15154     15150     15148     15153     15155
     15151     15153     15155     15156     15151     15153     15155     15157
     15151     15153     15155     15159     15151     15203     15205     15206
     15151     15203     15205     15207     15151     15203     15205     15208
     15152     15151     15153     15154     15152     15151     15153     15155
     15152     15151     15203     15204     15152     15151     15203     15205
     15153     15151     15203     15204     15153     15151     15203     15205
     15153     15155     15157     15158     15153     15155     15159     15160
     15153     15155     15159     15161     15154     15153     15151     15203
     15154     15153     15155     15156     15154     15153     15155     15157
     15154     15153     15155     15159     15155     15153     15151     15203
     15155     15159     15161     15162     15155     15159     15161     15163
     15156     15155     15157     15158     15156     15155     15159     15160
     15156     15155     15159     15161     15157     15155     15159     15160
     15157     15155     15159     15161     15158     15157     15155     15159
     15159     15161     15163     15164     15159     15161     15163     15165
     15159     15161     15163     15166     15160     15159     15161     15162
     15160     15159     15161     15163     15161     15163     15166     15167
     15161     15163     15166     15168     15161     15163     15166     15169
     15162     15161     15163     15164     15162     15161     15163     15165
     15162     15161     15163     15166     15163     15166     15169     15170
     15163     15166     15169     15171     15163     15166     15169     15172
     15164     15163     15166     15167     15164     15163     15166     15168
     15164     15163     15166     15169     15165     15163     15166     15167
     15165     15163     15166     15168     15165     15163     15166     15169
     15166     15169     15172     15173     15166     15169     15172     15174
     15166     15169     15172     15175     15167     15166     15169     15170
     15167     15166     15169     15171     15167     15166     15169     15172
     15168     15166     15169     15170     15168     15166     15169     15171
     15168     15166     15169     15172     15169     15172     15175     15176
     15169     15172     15175     15177     15169     15172     15175     15178
     15170     15169     15172     15173     15170     15169     15172     15174
     15170     15169     15172     15175     15171     15169     15172     15173
     15171     15169     15172     15174     15171     15169     15172     15175
     15172     15175     15178     15179     15172     15175     15178     15180
     15172     15175     15178     15181     15173     15172     15175     15176
     15173     15172     15175     15177     15173     15172     15175     15178
     15174     15172     15175     15176     15174     15172     15175     15177
     15174     15172     15175     15178     15175     15178     15181     15182
     15175     15178     15181     15183     15175     15178     15181     15184
     15176     15175     15178     15179     15176     15175     15178     15180
     15176     15175     15178     15181     15177     15175     15178     15179
     15177     15175     15178     15180     15177     15175     15178     15181
     15178     15181     15184     15185     15178     15181     15184     15186
     15178     15181     15184     15187     15179     15178     15181     15182
     15179     15178     15181     15183     15179     15178     15181     15184
     15180     15178     15181     15182     15180     15178     15181     15183
     15180     15178     15181     15184     15181     15184     15187     15188
     15181     15184     15187     15189     15181     15184     15187     15190
     15182     15181     15184     15185     15182     15181     15184     15186
     15182     15181     15184     15187     15183     15181     15184     15185
     15183     15181     15184     15186     15183     15181     15184     15187
     15184     15187     15190     15191     15184     15187     15190     15192
     15184     15187     15190     15193     15185     15184     15187     15188
     15185     15184     15187     15189     15185     15184     15187     15190
     15186     15184     15187     15188     15186     15184     15187     15189
     15186     15184     15187     15190     15187     15190     15193     15194
     15187     15190     15193     15195     15187     15190     15193     15196
     15188     15187     15190     15191     15188     15187     15190     15192
     15188     15187     15190     15193     15189     15187     15190     15191
     15189     15187     15190     15192     15189     15187     15190     15193
     15190     15193     15196     15197     15190     15193     15196     15198
     15190     15193     15196     15199     15191     15190     15193     15194
     15191     15190     15193     15195     15191     15190     15193     15196
     15192     15190     15193     15194     15192     15190     15193     15195
     15192     15190     15193     15196     15193     15196     15199     15200
     15193     15196     15199     15201     15193     15196     15199     15202
     15194     15193     15196     15197     15194     15193     15196     15198
     15194     15193     15196     15199     15195     15193     15196     15197
     15195     15193     15196     15198     15195     15193     15196     15199
     15197     15196     15199     15200     15197     15196     15199     15201
     15197     15196     15199     15202     15198     15196     15199     15200
     15198     15196     15199     15201     15198     15196     15199     15202
     15203     15205     15208     15209     15203     15205     15208     15210
     15203     15205     15208     15211     15204     15203     15205     15206
     15204     15203     15205     15207     15204     15203     15205     15208
     15205     15208     15211     15212     15205     15208     15211     15213
     15205     15208     15211     15214     15206     15205     15208     15209
     15206     15205     15208     15210     15206     15205     15208     15211
     15207     15205     15208     15209     15207     15205     15208     15210
     15207     15205     15208     15211     15208     15211     15214     15215
     15208     15211     15214     15216     15208     15211     15214     15217
     15209     15208     15211     15212     15209     15208     15211     15213
     15209     15208     15211     15214     15210     15208     15211     15212
     15210     15208     15211     15213     15210     15208     15211     15214
     15211     15214     15217     15218     15211     15214     15217     15219
     15211     15214     15217     15220     15212     15211     15214     15215
     15212     15211     15214     15216     15212     15211     15214     15217
     15213     15211     15214     15215     15213     15211     15214     15216
     15213     15211     15214     15217     15214     15217     15220     15221
     15214     15217     15220     15222     15214     15217     15220     15223
     15215     15214     15217     15218     15215     15214     15217     15219
     15215     15214     15217     15220     15216     15214     15217     15218
     15216     15214     15217     15219     15216     15214     15217     15220
     15217     15220     15223     15224     15217     15220     15223     15225
     15217     15220     15223     15226     15218     15217     15220     15221
     15218     15217     15220     15222     15218     15217     15220     15223
     15219     15217     15220     15221     15219     15217     15220     15222
     15219     15217     15220     15223     15220     15223     15226     15227
     15220     15223     15226     15228     15221     15220     15223     15224
     15221     15220     15223     15225     15221     15220     15223     15226
     15222     15220     15223     15224     15222     15220     15223     15225
     15222     15220     15223     15226     15223     15226     15228     15229
     15223     15226     15228     15230     15224     15223     15226     15227
     15224     15223     15226     15228     15225     15223     15226     15227
     15225     15223     15226     15228     15226     15228     15230     15231
     15226     15228     15230     15232     15226     15228     15230     15233
     15227     15226     15228     15229     15227     15226     15228     15230
     15228     15230     15233     15234     15228     15230     15233     15235
     15228     15230     15233     15236     15229     15228     15230     15231
     15229     15228     15230     15232     15229     15228     15230     15233
     15230     15233     15236     15237     15230     15233     15236     15238
     15230     15233     15236     15239     15231     15230     15233     15234
     15231     15230     15233     15235     15231     15230     15233     15236
     15232     15230     15233     15234     15232     15230     15233     15235
     15232     15230     15233     15236     15233     15236     15239     15240
     15233     15236     15239     15241     15233     15236     15239     15242
     15234     15233     15236     15237     15234     15233     15236     15238
     15234     15233     15236     15239     15235     15233     15236     15237
     15235     15233     15236     15238     15235     15233     15236     15239
     15236     15239     15242     15243     15236     15239     15242     15244
     15236     15239     15242     15245     15237     15236     15239     15240
     15237     15236     15239     15241     15237     15236     15239     15242
     15238     15236     15239     15240     15238     15236     15239     15241
     15238     15236     15239     15242     15239     15242     15245     15246
     15239     15242     15245     15247     15239     15242     15245     15248
     15240     15239     15242     15243     15240     15239     15242     15244
     15240     15239     15242     15245     15241     15239     15242     15243
     15241     15239     15242     15244     15241     15239     15242     15245
     15242     15245     15248     15249     15242     15245     15248     15250
     15242     15245     15248     15251     15243     15242     15245     15246
     15243     15242     15245     15247     15243     15242     15245     15248
     15244     15242     15245     15246     15244     15242     15245     15247
     15244     15242     15245     15248     15245     15248     15251     15252
     15245     15248     15251     15253     15245     15248     15251     15254
     15246     15245     15248     15249     15246     15245     15248     15250
     15246     15245     15248     15251     15247     15245     15248     15249
     15247     15245     15248     15250     15247     15245     15248     15251
     15249     15248     15251     15252     15249     15248     15251     15253
     15249     15248     15251     15254     15250     15248     15251     15252
     15250     15248     15251     15253     15250     15248     15251     15254
     15255     15268     15271     15272     15255     15268     15271     15273
     15255     15268     15271     15277     15256     15255     15260     15261
     15256     15255     15260     15262     15256     15255     15260     15263
     15256     15255     15264     15265     15256     15255     15264     15266
     15256     15255     15264     15267     15256     15255     15268     15269
     15256     15255     15268     15270     15256     15255     15268     15271
     15257     15256     15255     15260     15257     15256     15255     15264
     15257     15256     15255     15268     15258     15256     15255     15260
     15258     15256     15255     15264     15258     15256     15255     15268
     15259     15256     15255     15260     15259     15256     15255     15264
     15259     15256     15255     15268     15260     15255     15264     15265
     15260     15255     15264     15266     15260     15255     15264     15267
     15260     15255     15268     15269     15260     15255     15268     15270
     15260     15255     15268     15271     15261     15260     15255     15264
     15261     15260     15255     15268     15262     15260     15255     15264
     15262     15260     15255     15268     15263     15260     15255     15264
     15263     15260     15255     15268     15264     15255     15268     15269
     15264     15255     15268     15270     15264     15255     15268     15271
     15265     15264     15255     15268     15266     15264     15255     15268
     15267     15264     15255     15268     15268     15271     15277     15274
     15269     15268     15271     15272     15269     15268     15271     15273
     15269     15268     15271     15277     15270     15268     15271     15272
     15270     15268     15271     15273     15270     15268     15271     15277
     15271     15277     15274     15275     15271     15277     15274     15276
     15271     15277     15274     15278     15272     15271     15277     15274
     15273     15271     15277     15274     15274     15278     15279     15280
     15274     15278     15279     15281     15274     15278     15279     15282
     15275     15274     15278     15279     15276     15274     15278     15279
     15277     15274     15278     15279     15278     15279     15282     15283
     15278     15279     15282     15284     15278     15279     15282     15290
     15279     15282     15284     15285     15279     15282     15290     15291
     15279     15282     15290     15292     15279     15282     15290     15293
     15280     15279     15282     15283     15280     15279     15282     15284
     15280     15279     15282     15290     15281     15279     15282     15283
     15281     15279     15282     15284     15281     15279     15282     15290
     15282     15284     15285     15286     15282     15284     15285     15287
     15282     15290     15293     15294     15283     15282     15284     15285
     15283     15282     15290     15291     15283     15282     15290     15292
     15283     15282     15290     15293     15284     15282     15290     15291
     15284     15282     15290     15292     15284     15282     15290     15293
     15284     15285     15287     15288     15284     15285     15287     15289
     15284     15285     15287     15299     15285     15284     15282     15290
     15285     15287     15299     15300     15285     15287     15299     15301
     15285     15287     15299     15302     15286     15285     15287     15288
     15286     15285     15287     15289     15286     15285     15287     15299
     15287     15299     15302     15303     15287     15299     15302     15304
     15287     15299     15302     15305     15288     15287     15299     15300
     15288     15287     15299     15301     15288     15287     15299     15302
     15289     15287     15299     15300     15289     15287     15299     15301
     15289     15287     15299     15302     15290     15293     15294     15295
     15290     15293     15294     15296     15291     15290     15293     15294
     15292     15290     15293     15294     15293     15294     15296     15297
     15293     15294     15296     15298     15293     15294     15296     15344
     15294     15296     15344     15345     15294     15296     15344     15346
     15294     15296     15344     15347     15295     15294     15296     15297
     15295     15294     15296     15298     15295     15294     15296     15344
     15296     15344     15347     15348     15296     15344     15347     15349
     15296     15344     15347     15350     15297     15296     15344     15345
     15297     15296     15344     15346     15297     15296     15344     15347
     15298     15296     15344     15345     15298     15296     15344     15346
     15298     15296     15344     15347     15299     15302     15305     15306
     15299     15302     15305     15307     15299     15302     15305     15308
     15300     15299     15302     15303     15300     15299     15302     15304
     15300     15299     15302     15305     15301     15299     15302     15303
     15301     15299     15302     15304     15301     15299     15302     15305
     15302     15305     15308     15309     15302     15305     15308     15310
     15302     15305     15308     15311     15303     15302     15305     15306
     15303     15302     15305     15307     15303     15302     15305     15308
     15304     15302     15305     15306     15304     15302     15305     15307
     15304     15302     15305     15308     15305     15308     15311     15312
     15305     15308     15311     15313     15305     15308     15311     15314
     15306     15305     15308     15309     15306     15305     15308     15310
     15306     15305     15308     15311     15307     15305     15308     15309
     15307     15305     15308     15310     15307     15305     15308     15311
     15308     15311     15314     15315     15308     15311     15314     15316
     15308     15311     15314     15317     15309     15308     15311     15312
     15309     15308     15311     15313     15309     15308     15311     15314
     15310     15308     15311     15312     15310     15308     15311     15313
     15310     15308     15311     15314     15311     15314     15317     15318
     15311     15314     15317     15319     15312     15311     15314     15315
     15312     15311     15314     15316     15312     15311     15314     15317
     15313     15311     15314     15315     15313     15311     15314     15316
     15313     15311     15314     15317     15314     15317     15319     15320
     15314     15317     15319     15321     15315     15314     15317     15318
     15315     15314     15317     15319     15316     15314     15317     15318
     15316     15314     15317     15319     15317     15319     15321     15322
     15317     15319     15321     15323     15317     15319     15321     15324
     15318     15317     15319     15320     15318     15317     15319     15321
     15319     15321     15324     15325     15319     15321     15324     15326
     15320     15319     15321     15322     15320     15319     15321     15323
     15320     15319     15321     15324     15321     15324     15326     15327
     15321     15324     15326     15328     15322     15321     15324     15325
     15322     15321     15324     15326     15323     15321     15324     15325
     15323     15321     15324     15326     15324     15326     15328     15329
     15324     15326     15328     15330     15324     15326     15328     15331
     15325     15324     15326     15327     15325     15324     15326     15328
     15326     15328     15331     15332     15326     15328     15331     15333
     15326     15328     15331     15334     15327     15326     15328     15329
     15327     15326     15328     15330     15327     15326     15328     15331
     15328     15331     15334     15335     15328     15331     15334     15336
     15328     15331     15334     15337     15329     15328     15331     15332
     15329     15328     15331     15333     15329     15328     15331     15334
     15330     15328     15331     15332     15330     15328     15331     15333
     15330     15328     15331     15334     15331     15334     15337     15338
     15331     15334     15337     15339     15331     15334     15337     15340
     15332     15331     15334     15335     15332     15331     15334     15336
     15332     15331     15334     15337     15333     15331     15334     15335
     15333     15331     15334     15336     15333     15331     15334     15337
     15334     15337     15340     15341     15334     15337     15340     15342
     15334     15337     15340     15343     15335     15334     15337     15338
     15335     15334     15337     15339     15335     15334     15337     15340
     15336     15334     15337     15338     15336     15334     15337     15339
     15336     15334     15337     15340     15338     15337     15340     15341
     15338     15337     15340     15342     15338     15337     15340     15343
     15339     15337     15340     15341     15339     15337     15340     15342
     15339     15337     15340     15343     15344     15347     15350     15351
     15344     15347     15350     15352     15344     15347     15350     15353
     15345     15344     15347     15348     15345     15344     15347     15349
     15345     15344     15347     15350     15346     15344     15347     15348
     15346     15344     15347     15349     15346     15344     15347     15350
     15347     15350     15353     15354     15347     15350     15353     15355
     15347     15350     15353     15356     15348     15347     15350     15351
     15348     15347     15350     15352     15348     15347     15350     15353
     15349     15347     15350     15351     15349     15347     15350     15352
     15349     15347     15350     15353     15350     15353     15356     15357
     15350     15353     15356     15358     15350     15353     15356     15359
     15351     15350     15353     15354     15351     15350     15353     15355
     15351     15350     15353     15356     15352     15350     15353     15354
     15352     15350     15353     15355     15352     15350     15353     15356
     15353     15356     15359     15360     15353     15356     15359     15361
     15353     15356     15359     15362     15354     15353     15356     15357
     15354     15353     15356     15358     15354     15353     15356     15359
     15355     15353     15356     15357     15355     15353     15356     15358
     15355     15353     15356     15359     15356     15359     15362     15363
     15356     15359     15362     15364     15356     15359     15362     15365
     15357     15356     15359     15360     15357     15356     15359     15361
     15357     15356     15359     15362     15358     15356     15359     15360
     15358     15356     15359     15361     15358     15356     15359     15362
     15359     15362     15365     15366     15359     15362     15365     15367
     15359     15362     15365     15368     15360     15359     15362     15363
     15360     15359     15362     15364     15360     15359     15362     15365
     15361     15359     15362     15363     15361     15359     15362     15364
     15361     15359     15362     15365     15362     15365     15368     15369
     15362     15365     15368     15370     15362     15365     15368     15371
     15363     15362     15365     15366     15363     15362     15365     15367
     15363     15362     15365     15368     15364     15362     15365     15366
     15364     15362     15365     15367     15364     15362     15365     15368
     15365     15368     15371     15372     15365     15368     15371     15373
     15365     15368     15371     15374     15366     15365     15368     15369
     15366     15365     15368     15370     15366     15365     15368     15371
     15367     15365     15368     15369     15367     15365     15368     15370
     15367     15365     15368     15371     15368     15371     15374     15375
     15368     15371     15374     15376     15368     15371     15374     15377
     15369     15368     15371     15372     15369     15368     15371     15373
     15369     15368     15371     15374     15370     15368     15371     15372
     15370     15368     15371     15373     15370     15368     15371     15374
     15371     15374     15377     15378     15371     15374     15377     15379
     15371     15374     15377     15380     15372     15371     15374     15375
     15372     15371     15374     15376     15372     15371     15374     15377
     15373     15371     15374     15375     15373     15371     15374     15376
     15373     15371     15374     15377     15374     15377     15380     15381
     15374     15377     15380     15382     15374     15377     15380     15383
     15375     15374     15377     15378     15375     15374     15377     15379
     15375     15374     15377     15380     15376     15374     15377     15378
     15376     15374     15377     15379     15376     15374     15377     15380
     15377     15380     15383     15384     15377     15380     15383     15385
     15377     15380     15383     15386     15378     15377     15380     15381
     15378     15377     15380     15382     15378     15377     15380     15383
     15379     15377     15380     15381     15379     15377     15380     15382
     15379     15377     15380     15383     15380     15383     15386     15387
     15380     15383     15386     15388     15380     15383     15386     15389
     15381     15380     15383     15384     15381     15380     15383     15385
     15381     15380     15383     15386     15382     15380     15383     15384
     15382     15380     15383     15385     15382     15380     15383     15386
     15383     15386     15389     15390     15383     15386     15389     15391
     15383     15386     15389     15392     15384     15383     15386     15387
     15384     15383     15386     15388     15384     15383     15386     15389
     15385     15383     15386     15387     15385     15383     15386     15388
     15385     15383     15386     15389     15387     15386     15389     15390
     15387     15386     15389     15391     15387     15386     15389     15392
     15388     15386     15389     15390     15388     15386     15389     15391
     15388     15386     15389     15392     15393     15406     15409     15410
     15393     15406     15409     15411     15393     15406     15409     15416
     15394     15393     15398     15399     15394     15393     15398     15400
     15394     15393     15398     15401     15394     15393     15402     15403
     15394     15393     15402     15404     15394     15393     15402     15405
     15394     15393     15406     15407     15394     15393     15406     15408
     15394     15393     15406     15409     15395     15394     15393     15398
     15395     15394     15393     15402     15395     15394     15393     15406
     15396     15394     15393     15398     15396     15394     15393     15402
     15396     15394     15393     15406     15397     15394     15393     15398
     15397     15394     15393     15402     15397     15394     15393     15406
     15398     15393     15402     15403     15398     15393     15402     15404
     15398     15393     15402     15405     15398     15393     15406     15407
     15398     15393     15406     15408     15398     15393     15406     15409
     15399     15398     15393     15402     15399     15398     15393     15406
     15400     15398     15393     15402     15400     15398     15393     15406
     15401     15398     15393     15402     15401     15398     15393     15406
     15402     15393     15406     15407     15402     15393     15406     15408
     15402     15393     15406     15409     15403     15402     15393     15406
     15404     15402     15393     15406     15405     15402     15393     15406
     15406     15409     15416     15412     15407     15406     15409     15410
     15407     15406     15409     15411     15407     15406     15409     15416
     15408     15406     15409     15410     15408     15406     15409     15411
     15408     15406     15409     15416     15409     15416     15412     15413
     15409     15416     15412     15414     15409     15416     15412     15415
     15410     15409     15416     15412     15411     15409     15416     15412
     15412     15415     15417     15418     15412     15415     15417     15419
     15412     15415     15417     15422     15413     15412     15415     15417
     15414     15412     15415     15417     15415     15417     15422     15420
     15415     15417     15422     15423     15415     15417     15422     15424
     15416     15412     15415     15417     15417     15422     15420     15421
     15417     15422     15420     15472     15417     15422     15424     15425
     15417     15422     15424     15426     15417     15422     15424     15428
     15418     15417     15422     15420     15418     15417     15422     15423
     15418     15417     15422     15424     15419     15417     15422     15420
     15419     15417     15422     15423     15419     15417     15422     15424
     15420     15422     15424     15425     15420     15422     15424     15426
     15420     15422     15424     15428     15420     15472     15474     15475
     15420     15472     15474     15476     15420     15472     15474     15477
     15421     15420     15422     15423     15421     15420     15422     15424
     15421     15420     15472     15473     15421     15420     15472     15474
     15422     15420     15472     15473     15422     15420     15472     15474
     15422     15424     15426     15427     15422     15424     15428     15429
     15422     15424     15428     15430     15423     15422     15420     15472
     15423     15422     15424     15425     15423     15422     15424     15426
     15423     15422     15424     15428     15424     15422     15420     15472
     15424     15428     15430     15431     15424     15428     15430     15432
     15425     15424     15426     15427     15425     15424     15428     15429
     15425     15424     15428     15430     15426     15424     15428     15429
     15426     15424     15428     15430     15427     15426     15424     15428
     15428     15430     15432     15433     15428     15430     15432     15434
     15428     15430     15432     15435     15429     15428     15430     15431
     15429     15428     15430     15432     15430     15432     15435     15436
     15430     15432     15435     15437     15430     15432     15435     15438
     15431     15430     15432     15433     15431     15430     15432     15434
     15431     15430     15432     15435     15432     15435     15438     15439
     15432     15435     15438     15440     15432     15435     15438     15441
     15433     15432     15435     15436     15433     15432     15435     15437
     15433     15432     15435     15438     15434     15432     15435     15436
     15434     15432     15435     15437     15434     15432     15435     15438
     15435     15438     15441     15442     15435     15438     15441     15443
     15435     15438     15441     15444     15436     15435     15438     15439
     15436     15435     15438     15440     15436     15435     15438     15441
     15437     15435     15438     15439     15437     15435     15438     15440
     15437     15435     15438     15441     15438     15441     15444     15445
     15438     15441     15444     15446     15438     15441     15444     15447
     15439     15438     15441     15442     15439     15438     15441     15443
     15439     15438     15441     15444     15440     15438     15441     15442
     15440     15438     15441     15443     15440     15438     15441     15444
     15441     15444     15447     15448     15441     15444     15447     15449
     15441     15444     15447     15450     15442     15441     15444     15445
     15442     15441     15444     15446     15442     15441     15444     15447
     15443     15441     15444     15445     15443     15441     15444     15446
     15443     15441     15444     15447     15444     15447     15450     15451
     15444     15447     15450     15452     15444     15447     15450     15453
     15445     15444     15447     15448     15445     15444     15447     15449
     15445     15444     15447     15450     15446     15444     15447     15448
     15446     15444     15447     15449     15446     15444     15447     15450
     15447     15450     15453     15454     15447     15450     15453     15455
     15447     15450     15453     15456     15448     15447     15450     15451
     15448     15447     15450     15452     15448     15447     15450     15453
     15449     15447     15450     15451     15449     15447     15450     15452
     15449     15447     15450     15453     15450     15453     15456     15457
     15450     15453     15456     15458     15450     15453     15456     15459
     15451     15450     15453     15454     15451     15450     15453     15455
     15451     15450     15453     15456     15452     15450     15453     15454
     15452     15450     15453     15455     15452     15450     15453     15456
     15453     15456     15459     15460     15453     15456     15459     15461
     15453     15456     15459     15462     15454     15453     15456     15457
     15454     15453     15456     15458     15454     15453     15456     15459
     15455     15453     15456     15457     15455     15453     15456     15458
     15455     15453     15456     15459     15456     15459     15462     15463
     15456     15459     15462     15464     15456     15459     15462     15465
     15457     15456     15459     15460     15457     15456     15459     15461
     15457     15456     15459     15462     15458     15456     15459     15460
     15458     15456     15459     15461     15458     15456     15459     15462
     15459     15462     15465     15466     15459     15462     15465     15467
     15459     15462     15465     15468     15460     15459     15462     15463
     15460     15459     15462     15464     15460     15459     15462     15465
     15461     15459     15462     15463     15461     15459     15462     15464
     15461     15459     15462     15465     15462     15465     15468     15469
     15462     15465     15468     15470     15462     15465     15468     15471
     15463     15462     15465     15466     15463     15462     15465     15467
     15463     15462     15465     15468     15464     15462     15465     15466
     15464     15462     15465     15467     15464     15462     15465     15468
     15466     15465     15468     15469     15466     15465     15468     15470
     15466     15465     15468     15471     15467     15465     15468     15469
     15467     15465     15468     15470     15467     15465     15468     15471
     15472     15474     15477     15478     15472     15474     15477     15479
     15472     15474     15477     15480     15473     15472     15474     15475
     15473     15472     15474     15476     15473     15472     15474     15477
     15474     15477     15480     15481     15474     15477     15480     15482
     15474     15477     15480     15483     15475     15474     15477     15478
     15475     15474     15477     15479     15475     15474     15477     15480
     15476     15474     15477     15478     15476     15474     15477     15479
     15476     15474     15477     15480     15477     15480     15483     15484
     15477     15480     15483     15485     15477     15480     15483     15486
     15478     15477     15480     15481     15478     15477     15480     15482
     15478     15477     15480     15483     15479     15477     15480     15481
     15479     15477     15480     15482     15479     15477     15480     15483
     15480     15483     15486     15487     15480     15483     15486     15488
     15480     15483     15486     15489     15481     15480     15483     15484
     15481     15480     15483     15485     15481     15480     15483     15486
     15482     15480     15483     15484     15482     15480     15483     15485
     15482     15480     15483     15486     15483     15486     15489     15490
     15483     15486     15489     15491     15483     15486     15489     15492
     15484     15483     15486     15487     15484     15483     15486     15488
     15484     15483     15486     15489     15485     15483     15486     15487
     15485     15483     15486     15488     15485     15483     15486     15489
     15486     15489     15492     15493     15486     15489     15492     15494
     15486     15489     15492     15495     15487     15486     15489     15490
     15487     15486     15489     15491     15487     15486     15489     15492
     15488     15486     15489     15490     15488     15486     15489     15491
     15488     15486     15489     15492     15489     15492     15495     15496
     15489     15492     15495     15497     15490     15489     15492     15493
     15490     15489     15492     15494     15490     15489     15492     15495
     15491     15489     15492     15493     15491     15489     15492     15494
     15491     15489     15492     15495     15492     15495     15497     15498
     15492     15495     15497     15499     15493     15492     15495     15496
     15493     15492     15495     15497     15494     15492     15495     15496
     15494     15492     15495     15497     15495     15497     15499     15500
     15495     15497     15499     15501     15495     15497     15499     15502
     15496     15495     15497     15498     15496     15495     15497     15499
     15497     15499     15502     15503     15497     15499     15502     15504
     15497     15499     15502     15505     15498     15497     15499     15500
     15498     15497     15499     15501     15498     15497     15499     15502
     15499     15502     15505     15506     15499     15502     15505     15507
     15499     15502     15505     15508     15500     15499     15502     15503
     15500     15499     15502     15504     15500     15499     15502     15505
     15501     15499     15502     15503     15501     15499     15502     15504
     15501     15499     15502     15505     15502     15505     15508     15509
     15502     15505     15508     15510     15502     15505     15508     15511
     15503     15502     15505     15506     15503     15502     15505     15507
     15503     15502     15505     15508     15504     15502     15505     15506
     15504     15502     15505     15507     15504     15502     15505     15508
     15505     15508     15511     15512     15505     15508     15511     15513
     15505     15508     15511     15514     15506     15505     15508     15509
     15506     15505     15508     15510     15506     15505     15508     15511
     15507     15505     15508     15509     15507     15505     15508     15510
     15507     15505     15508     15511     15508     15511     15514     15515
     15508     15511     15514     15516     15508     15511     15514     15517
     15509     15508     15511     15512     15509     15508     15511     15513
     15509     15508     15511     15514     15510     15508     15511     15512
     15510     15508     15511     15513     15510     15508     15511     15514
     15511     15514     15517     15518     15511     15514     15517     15519
     15511     15514     15517     15520     15512     15511     15514     15515
     15512     15511     15514     15516     15512     15511     15514     15517
     15513     15511     15514     15515     15513     15511     15514     15516
     15513     15511     15514     15517     15514     15517     15520     15521
     15514     15517     15520     15522     15514     15517     15520     15523
     15515     15514     15517     15518     15515     15514     15517     15519
     15515     15514     15517     15520     15516     15514     15517     15518
     15516     15514     15517     15519     15516     15514     15517     15520
     15518     15517     15520     15521     15518     15517     15520     15522
     15518     15517     15520     15523     15519     15517     15520     15521
     15519     15517     15520     15522     15519     15517     15520     15523
     15524     15525     15540     15541     15524     15525     15540     15542
     15524     15525     15540     15546     15525     15524     15528     15529
     15525     15524     15528     15530     15525     15524     15528     15531
     15525     15524     15532     15533     15525     15524     15532     15534
     15525     15524     15532     15535     15525     15524     15536     15537
     15525     15524     15536     15538     15525     15524     15536     15539
     15525     15540     15546     15543     15526     15525     15524     15528
     15526     15525     15524     15532     15526     15525     15524     15536
     15526     15525     15540     15541     15526     15525     15540     15542
     15526     15525     15540     15546     15527     15525     15524     15528
     15527     15525     15524     15532     15527     15525     15524     15536
     15527     15525     15540     15541     15527     15525     15540     15542
     15527     15525     15540     15546     15528     15524     15525     15540
     15528     15524     15532     15533     15528     15524     15532     15534
     15528     15524     15532     15535     15528     15524     15536     15537
     15528     15524     15536     15538     15528     15524     15536     15539
     15529     15528     15524     15532     15529     15528     15524     15536
     15530     15528     15524     15532     15530     15528     15524     15536
     15531     15528     15524     15532     15531     15528     15524     15536
     15532     15524     15525     15540     15532     15524     15536     15537
     15532     15524     15536     15538     15532     15524     15536     15539
     15533     15532     15524     15536     15534     15532     15524     15536
     15535     15532     15524     15536     15536     15524     15525     15540
     15540     15546     15543     15544     15540     15546     15543     15545
     15540     15546     15543     15547     15541     15540     15546     15543
     15542     15540     15546     15543     15543     15547     15548     15549
     15543     15547     15548     15550     15543     15547     15548     15551
     15544     15543     15547     15548     15545     15543     15547     15548
     15546     15543     15547     15548     15547     15548     15551     15552
     15547     15548     15551     15553     15547     15548     15551     15559
     15548     15551     15553     15554     15548     15551     15559     15560
     15548     15551     15559     15561     15548     15551     15559     15562
     15549     15548     15551     15552     15549     15548     15551     15553
     15549     15548     15551     15559     15550     15548     15551     15552
     15550     15548     15551     15553     15550     15548     15551     15559
     15551     15553     15554     15555     15551     15553     15554     15556
     15551     15559     15562     15563     15552     15551     15553     15554
     15552     15551     15559     15560     15552     15551     15559     15561
     15552     15551     15559     15562     15553     15551     15559     15560
     15553     15551     15559     15561     15553     15551     15559     15562
     15553     15554     15556     15557     15553     15554     15556     15558
     15553     15554     15556     15568     15554     15553     15551     15559
     15554     15556     15568     15569     15554     15556     15568     15570
     15554     15556     15568     15571     15555     15554     15556     15557
     15555     15554     15556     15558     15555     15554     15556     15568
     15556     15568     15571     15572     15556     15568     15571     15573
     15556     15568     15571     15574     15557     15556     15568     15569
     15557     15556     15568     15570     15557     15556     15568     15571
     15558     15556     15568     15569     15558     15556     15568     15570
     15558     15556     15568     15571     15559     15562     15563     15564
     15559     15562     15563     15565     15560     15559     15562     15563
     15561     15559     15562     15563     15562     15563     15565     15566
     15562     15563     15565     15567     15562     15563     15565     15615
     15563     15565     15615     15616     15563     15565     15615     15617
     15563     15565     15615     15618     15564     15563     15565     15566
     15564     15563     15565     15567     15564     15563     15565     15615
     15565     15615     15618     15619     15565     15615     15618     15620
     15565     15615     15618     15621     15566     15565     15615     15616
     15566     15565     15615     15617     15566     15565     15615     15618
     15567     15565     15615     15616     15567     15565     15615     15617
     15567     15565     15615     15618     15568     15571     15574     15575
     15568     15571     15574     15576     15569     15568     15571     15572
     15569     15568     15571     15573     15569     15568     15571     15574
     15570     15568     15571     15572     15570     15568     15571     15573
     15570     15568     15571     15574     15571     15574     15576     15577
     15571     15574     15576     15578     15572     15571     15574     15575
     15572     15571     15574     15576     15573     15571     15574     15575
     15573     15571     15574     15576     15574     15576     15578     15579
     15574     15576     15578     15580     15574     15576     15578     15581
     15575     15574     15576     15577     15575     15574     15576     15578
     15576     15578     15581     15582     15576     15578     15581     15583
     15577     15576     15578     15579     15577     15576     15578     15580
     15577     15576     15578     15581     15578     15581     15583     15584
     15578     15581     15583     15585     15579     15578     15581     15582
     15579     15578     15581     15583     15580     15578     15581     15582
     15580     15578     15581     15583     15581     15583     15585     15586
     15581     15583     15585     15587     15581     15583     15585     15588
     15582     15581     15583     15584     15582     15581     15583     15585
     15583     15585     15588     15589     15583     15585     15588     15590
     15584     15583     15585     15586     15584     15583     15585     15587
     15584     15583     15585     15588     15585     15588     15590     15591
     15585     15588     15590     15592     15586     15585     15588     15589
     15586     15585     15588     15590     15587     15585     15588     15589
     15587     15585     15588     15590     15588     15590     15592     15593
     15588     15590     15592     15594     15588     15590     15592     15595
     15589     15588     15590     15591     15589     15588     15590     15592
     15590     15592     15595     15596     15590     15592     15595     15597
     15591     15590     15592     15593     15591     15590     15592     15594
     15591     15590     15592     15595     15592     15595     15597     15598
     15592     15595     15597     15599     15593     15592     15595     15596
     15593     15592     15595     15597     15594     15592     15595     15596
     15594     15592     15595     15597     15595     15597     15599     15600
     15595     15597     15599     15601     15595     15597     15599     15602
     15596     15595     15597     15598     15596     15595     15597     15599
     15597     15599     15602     15603     15597     15599     15602     15604
     15597     15599     15602     15605     15598     15597     15599     15600
     15598     15597     15599     15601     15598     15597     15599     15602
     15599     15602     15605     15606     15599     15602     15605     15607
     15599     15602     15605     15608     15600     15599     15602     15603
     15600     15599     15602     15604     15600     15599     15602     15605
     15601     15599     15602     15603     15601     15599     15602     15604
     15601     15599     15602     15605     15602     15605     15608     15609
     15602     15605     15608     15610     15602     15605     15608     15611
     15603     15602     15605     15606     15603     15602     15605     15607
     15603     15602     15605     15608     15604     15602     15605     15606
     15604     15602     15605     15607     15604     15602     15605     15608
     15605     15608     15611     15612     15605     15608     15611     15613
     15605     15608     15611     15614     15606     15605     15608     15609
     15606     15605     15608     15610     15606     15605     15608     15611
     15607     15605     15608     15609     15607     15605     15608     15610
     15607     15605     15608     15611     15609     15608     15611     15612
     15609     15608     15611     15613     15609     15608     15611     15614
     15610     15608     15611     15612     15610     15608     15611     15613
     15610     15608     15611     15614     15615     15618     15621     15622
     15615     15618     15621     15623     15615     15618     15621     15624
     15616     15615     15618     15619     15616     15615     15618     15620
     15616     15615     15618     15621     15617     15615     15618     15619
     15617     15615     15618     15620     15617     15615     15618     15621
     15618     15621     15624     15625     15618     15621     15624     15626
     15618     15621     15624     15627     15619     15618     15621     15622
     15619     15618     15621     15623     15619     15618     15621     15624
     15620     15618     15621     15622     15620     15618     15621     15623
     15620     15618     15621     15624     15621     15624     15627     15628
     15621     15624     15627     15629     15621     15624     15627     15630
     15622     15621     15624     15625     15622     15621     15624     15626
     15622     15621     15624     15627     15623     15621     15624     15625
     15623     15621     15624     15626     15623     15621     15624     15627
     15624     15627     15630     15631     15624     15627     15630     15632
     15624     15627     15630     15633     15625     15624     15627     15628
     15625     15624     15627     15629     15625     15624     15627     15630
     15626     15624     15627     15628     15626     15624     15627     15629
     15626     15624     15627     15630     15627     15630     15633     15634
     15627     15630     15633     15635     15627     15630     15633     15636
     15628     15627     15630     15631     15628     15627     15630     15632
     15628     15627     15630     15633     15629     15627     15630     15631
     15629     15627     15630     15632     15629     15627     15630     15633
     15630     15633     15636     15637     15630     15633     15636     15638
     15630     15633     15636     15639     15631     15630     15633     15634
     15631     15630     15633     15635     15631     15630     15633     15636
     15632     15630     15633     15634     15632     15630     15633     15635
     15632     15630     15633     15636     15633     15636     15639     15640
     15633     15636     15639     15641     15633     15636     15639     15642
     15634     15633     15636     15637     15634     15633     15636     15638
     15634     15633     15636     15639     15635     15633     15636     15637
     15635     15633     15636     15638     15635     15633     15636     15639
     15636     15639     15642     15643     15636     15639     15642     15644
     15636     15639     15642     15645     15637     15636     15639     15640
     15637     15636     15639     15641     15637     15636     15639     15642
     15638     15636     15639     15640     15638     15636     15639     15641
     15638     15636     15639     15642     15639     15642     15645     15646
     15639     15642     15645     15647     15639     15642     15645     15648
     15640     15639     15642     15643     15640     15639     15642     15644
     15640     15639     15642     15645     15641     15639     15642     15643
     15641     15639     15642     15644     15641     15639     15642     15645
     15642     15645     15648     15649     15642     15645     15648     15650
     15642     15645     15648     15651     15643     15642     15645     15646
     15643     15642     15645     15647     15643     15642     15645     15648
     15644     15642     15645     15646     15644     15642     15645     15647
     15644     15642     15645     15648     15645     15648     15651     15652
     15645     15648     15651     15653     15645     15648     15651     15654
     15646     15645     15648     15649     15646     15645     15648     15650
     15646     15645     15648     15651     15647     15645     15648     15649
     15647     15645     15648     15650     15647     15645     15648     15651
     15648     15651     15654     15655     15648     15651     15654     15656
     15648     15651     15654     15657     15649     15648     15651     15652
     15649     15648     15651     15653     15649     15648     15651     15654
     15650     15648     15651     15652     15650     15648     15651     15653
     15650     15648     15651     15654     15651     15654     15657     15658
     15651     15654     15657     15659     15651     15654     15657     15660
     15652     15651     15654     15655     15652     15651     15654     15656
     15652     15651     15654     15657     15653     15651     15654     15655
     15653     15651     15654     15656     15653     15651     15654     15657
     15654     15657     15660     15661     15654     15657     15660     15662
     15654     15657     15660     15663     15655     15654     15657     15658
     15655     15654     15657     15659     15655     15654     15657     15660
     15656     15654     15657     15658     15656     15654     15657     15659
     15656     15654     15657     15660     15658     15657     15660     15661
     15658     15657     15660     15662     15658     15657     15660     15663
     15659     15657     15660     15661     15659     15657     15660     15662
     15659     15657     15660     15663     15664     15668     15670     15671
     15664     15668     15670     15672     15664     15668     15673     15674
     15664     15668     15673     15675     15664     15668     15673     15679
     15665     15664     15668     15669     15665     15664     15668     15670
     15665     15664     15668     15673     15666     15664     15668     15669
     15666     15664     15668     15670     15666     15664     15668     15673
     15667     15664     15668     15669     15667     15664     15668     15670
     15667     15664     15668     15673     15668     15673     15679     15676
     15669     15668     15670     15671     15669     15668     15670     15672
     15669     15668     15673     15674     15669     15668     15673     15675
     15669     15668     15673     15679     15670     15668     15673     15674
     15670     15668     15673     15675     15670     15668     15673     15679
     15671     15670     15668     15673     15672     15670     15668     15673
     15673     15679     15676     15677     15673     15679     15676     15678
     15673     15679     15676     15680     15674     15673     15679     15676
     15675     15673     15679     15676     15676     15680     15681     15682
     15676     15680     15681     15683     15676     15680     15681     15684
     15677     15676     15680     15681     15678     15676     15680     15681
     15679     15676     15680     15681     15680     15681     15684     15685
     15680     15681     15684     15686     15680     15681     15684     15692
     15681     15684     15686     15687     15681     15684     15692     15693
     15681     15684     15692     15694     15681     15684     15692     15695
     15682     15681     15684     15685     15682     15681     15684     15686
     15682     15681     15684     15692     15683     15681     15684     15685
     15683     15681     15684     15686     15683     15681     15684     15692
     15684     15686     15687     15688     15684     15686     15687     15689
     15684     15692     15695     15696     15685     15684     15686     15687
     15685     15684     15692     15693     15685     15684     15692     15694
     15685     15684     15692     15695     15686     15684     15692     15693
     15686     15684     15692     15694     15686     15684     15692     15695
     15686     15687     15689     15690     15686     15687     15689     15691
     15686     15687     15689     15701     15687     15686     15684     15692
     15687     15689     15701     15702     15687     15689     15701     15703
     15687     15689     15701     15704     15688     15687     15689     15690
     15688     15687     15689     15691     15688     15687     15689     15701
     15689     15701     15704     15705     15689     15701     15704     15706
     15689     15701     15704     15707     15690     15689     15701     15702
     15690     15689     15701     15703     15690     15689     15701     15704
     15691     15689     15701     15702     15691     15689     15701     15703
     15691     15689     15701     15704     15692     15695     15696     15697
     15692     15695     15696     15698     15693     15692     15695     15696
     15694     15692     15695     15696     15695     15696     15698     15699
     15695     15696     15698     15700     15695     15696     15698     15748
     15696     15698     15748     15749     15696     15698     15748     15750
     15696     15698     15748     15751     15697     15696     15698     15699
     15697     15696     15698     15700     15697     15696     15698     15748
     15698     15748     15751     15752     15698     15748     15751     15753
     15698     15748     15751     15754     15699     15698     15748     15749
     15699     15698     15748     15750     15699     15698     15748     15751
     15700     15698     15748     15749     15700     15698     15748     15750
     15700     15698     15748     15751     15701     15704     15707     15708
     15701     15704     15707     15709     15702     15701     15704     15705
     15702     15701     15704     15706     15702     15701     15704     15707
     15703     15701     15704     15705     15703     15701     15704     15706
     15703     15701     15704     15707     15704     15707     15709     15710
     15704     15707     15709     15711     15705     15704     15707     15708
     15705     15704     15707     15709     15706     15704     15707     15708
     15706     15704     15707     15709     15707     15709     15711     15712
     15707     15709     15711     15713     15707     15709     15711     15714
     15708     15707     15709     15710     15708     15707     15709     15711
     15709     15711     15714     15715     15709     15711     15714     15716
     15710     15709     15711     15712     15710     15709     15711     15713
     15710     15709     15711     15714     15711     15714     15716     15717
     15711     15714     15716     15718     15712     15711     15714     15715
     15712     15711     15714     15716     15713     15711     15714     15715
     15713     15711     15714     15716     15714     15716     15718     15719
     15714     15716     15718     15720     15714     15716     15718     15721
     15715     15714     15716     15717     15715     15714     15716     15718
     15716     15718     15721     15722     15716     15718     15721     15723
     15717     15716     15718     15719     15717     15716     15718     15720
     15717     15716     15718     15721     15718     15721     15723     15724
     15718     15721     15723     15725     15719     15718     15721     15722
     15719     15718     15721     15723     15720     15718     15721     15722
     15720     15718     15721     15723     15721     15723     15725     15726
     15721     15723     15725     15727     15721     15723     15725     15728
     15722     15721     15723     15724     15722     15721     15723     15725
     15723     15725     15728     15729     15723     15725     15728     15730
     15724     15723     15725     15726     15724     15723     15725     15727
     15724     15723     15725     15728     15725     15728     15730     15731
     15725     15728     15730     15732     15726     15725     15728     15729
     15726     15725     15728     15730     15727     15725     15728     15729
     15727     15725     15728     15730     15728     15730     15732     15733
     15728     15730     15732     15734     15728     15730     15732     15735
     15729     15728     15730     15731     15729     15728     15730     15732
     15730     15732     15735     15736     15730     15732     15735     15737
     15730     15732     15735     15738     15731     15730     15732     15733
     15731     15730     15732     15734     15731     15730     15732     15735
     15732     15735     15738     15739     15732     15735     15738     15740
     15732     15735     15738     15741     15733     15732     15735     15736
     15733     15732     15735     15737     15733     15732     15735     15738
     15734     15732     15735     15736     15734     15732     15735     15737
     15734     15732     15735     15738     15735     15738     15741     15742
     15735     15738     15741     15743     15735     15738     15741     15744
     15736     15735     15738     15739     15736     15735     15738     15740
     15736     15735     15738     15741     15737     15735     15738     15739
     15737     15735     15738     15740     15737     15735     15738     15741
     15738     15741     15744     15745     15738     15741     15744     15746
     15738     15741     15744     15747     15739     15738     15741     15742
     15739     15738     15741     15743     15739     15738     15741     15744
     15740     15738     15741     15742     15740     15738     15741     15743
     15740     15738     15741     15744     15742     15741     15744     15745
     15742     15741     15744     15746     15742     15741     15744     15747
     15743     15741     15744     15745     15743     15741     15744     15746
     15743     15741     15744     15747     15748     15751     15754     15755
     15748     15751     15754     15756     15748     15751     15754     15757
     15749     15748     15751     15752     15749     15748     15751     15753
     15749     15748     15751     15754     15750     15748     15751     15752
     15750     15748     15751     15753     15750     15748     15751     15754
     15751     15754     15757     15758     15751     15754     15757     15759
     15751     15754     15757     15760     15752     15751     15754     15755
     15752     15751     15754     15756     15752     15751     15754     15757
     15753     15751     15754     15755     15753     15751     15754     15756
     15753     15751     15754     15757     15754     15757     15760     15761
     15754     15757     15760     15762     15754     15757     15760     15763
     15755     15754     15757     15758     15755     15754     15757     15759
     15755     15754     15757     15760     15756     15754     15757     15758
     15756     15754     15757     15759     15756     15754     15757     15760
     15757     15760     15763     15764     15757     15760     15763     15765
     15757     15760     15763     15766     15758     15757     15760     15761
     15758     15757     15760     15762     15758     15757     15760     15763
     15759     15757     15760     15761     15759     15757     15760     15762
     15759     15757     15760     15763     15760     15763     15766     15767
     15760     15763     15766     15768     15760     15763     15766     15769
     15761     15760     15763     15764     15761     15760     15763     15765
     15761     15760     15763     15766     15762     15760     15763     15764
     15762     15760     15763     15765     15762     15760     15763     15766
     15763     15766     15769     15770     15763     15766     15769     15771
     15763     15766     15769     15772     15764     15763     15766     15767
     15764     15763     15766     15768     15764     15763     15766     15769
     15765     15763     15766     15767     15765     15763     15766     15768
     15765     15763     15766     15769     15766     15769     15772     15773
     15766     15769     15772     15774     15766     15769     15772     15775
     15767     15766     15769     15770     15767     15766     15769     15771
     15767     15766     15769     15772     15768     15766     15769     15770
     15768     15766     15769     15771     15768     15766     15769     15772
     15769     15772     15775     15776     15769     15772     15775     15777
     15769     15772     15775     15778     15770     15769     15772     15773
     15770     15769     15772     15774     15770     15769     15772     15775
     15771     15769     15772     15773     15771     15769     15772     15774
     15771     15769     15772     15775     15772     15775     15778     15779
     15772     15775     15778     15780     15772     15775     15778     15781
     15773     15772     15775     15776     15773     15772     15775     15777
     15773     15772     15775     15778     15774     15772     15775     15776
     15774     15772     15775     15777     15774     15772     15775     15778
     15775     15778     15781     15782     15775     15778     15781     15783
     15775     15778     15781     15784     15776     15775     15778     15779
     15776     15775     15778     15780     15776     15775     15778     15781
     15777     15775     15778     15779     15777     15775     15778     15780
     15777     15775     15778     15781     15778     15781     15784     15785
     15778     15781     15784     15786     15778     15781     15784     15787
     15779     15778     15781     15782     15779     15778     15781     15783
     15779     15778     15781     15784     15780     15778     15781     15782
     15780     15778     15781     15783     15780     15778     15781     15784
     15781     15784     15787     15788     15781     15784     15787     15789
     15781     15784     15787     15790     15782     15781     15784     15785
     15782     15781     15784     15786     15782     15781     15784     15787
     15783     15781     15784     15785     15783     15781     15784     15786
     15783     15781     15784     15787     15784     15787     15790     15791
     15784     15787     15790     15792     15784     15787     15790     15793
     15785     15784     15787     15788     15785     15784     15787     15789
     15785     15784     15787     15790     15786     15784     15787     15788
     15786     15784     15787     15789     15786     15784     15787     15790
     15787     15790     15793     15794     15787     15790     15793     15795
     15787     15790     15793     15796     15788     15787     15790     15791
     15788     15787     15790     15792     15788     15787     15790     15793
     15789     15787     15790     15791     15789     15787     15790     15792
     15789     15787     15790     15793     15791     15790     15793     15794
     15791     15790     15793     15795     15791     15790     15793     15796
     15792     15790     15793     15794     15792     15790     15793     15795
     15792     15790     15793     15796     15797     15801     15804     15805
     15797     15801     15804     15835     15797     15843     15840     15835
     15797     15843     15840     15841     15797     15843     15840     15842
     15798     15797     15799     15800     15798     15797     15801     15802
     15798     15797     15801     15803     15798     15797     15801     15804
     15798     15797     15843     15840     15798     15797     15843     15844
     15798     15797     15843     15845     15799     15797     15801     15802
     15799     15797     15801     15803     15799     15797     15801     15804
     15799     15797     15843     15840     15799     15797     15843     15844
     15799     15797     15843     15845     15800     15799     15797     15801
     15800     15799     15797     15843     15801     15797     15843     15840
     15801     15797     15843     15844     15801     15797     15843     15845
     15801     15804     15805     15806     15801     15804     15805     15807
     15801     15804     15835     15833     15801     15804     15835     15836
     15801     15804     15835     15840     15802     15801     15797     15843
     15802     15801     15804     15805     15802     15801     15804     15835
     15803     15801     15797     15843     15803     15801     15804     15805
     15803     15801     15804     15835     15804     15801     15797     15843
     15804     15805     15807     15808     15804     15805     15807     15809
     15804     15805     15807     15810     15804     15835     15833     15810
     15804     15835     15833     15830     15804     15835     15833     15834
     15804     15835     15836     15837     15804     15835     15836     15838
     15804     15835     15836     15839     15804     15835     15840     15841
     15804     15835     15840     15842     15804     15835     15840     15843
     15805     15804     15835     15833     15805     15804     15835     15836
     15805     15804     15835     15840     15805     15807     15810     15811
     15805     15807     15810     15812     15805     15807     15810     15833
     15806     15805     15804     15835     15806     15805     15807     15808
     15806     15805     15807     15809     15806     15805     15807     15810
     15807     15805     15804     15835     15807     15810     15812     15813
     15807     15810     15812     15814     15807     15810     15812     15822
     15807     15810     15833     15830     15807     15810     15833     15834
     15807     15810     15833     15835     15808     15807     15810     15811
     15808     15807     15810     15812     15808     15807     15810     15833
     15809     15807     15810     15811     15809     15807     15810     15812
     15809     15807     15810     15833     15810     15812     15814     15815
     15810     15812     15814     15816     15810     15812     15814     15817
     15810     15812     15822     15820     15810     15812     15822     15823
     15810     15812     15822     15827     15810     15833     15830     15827
     15810     15833     15830     15831     15810     15833     15830     15832
     15810     15833     15835     15836     15810     15833     15835     15840
     15811     15810     15812     15813     15811     15810     15812     15814
     15811     15810     15812     15822     15811     15810     15833     15830
     15811     15810     15833     15834     15811     15810     15833     15835
     15812     15810     15833     15830     15812     15810     15833     15834
     15812     15810     15833     15835     15812     15814     15817     15818
     15812     15814     15817     15819     15812     15814     15817     15820
     15812     15822     15820     15817     15812     15822     15820     15821
     15812     15822     15820     15846     15812     15822     15823     15824
     15812     15822     15823     15825     15812     15822     15823     15826
     15812     15822     15827     15828     15812     15822     15827     15829
     15812     15822     15827     15830     15813     15812     15810     15833
     15813     15812     15814     15815     15813     15812     15814     15816
     15813     15812     15814     15817     15813     15812     15822     15820
     15813     15812     15822     15823     15813     15812     15822     15827
     15814     15812     15810     15833     15814     15812     15822     15820
     15814     15812     15822     15823     15814     15812     15822     15827
     15814     15817     15820     15821     15814     15817     15820     15822
     15814     15817     15820     15846     15815     15814     15812     15822
     15815     15814     15817     15818     15815     15814     15817     15819
     15815     15814     15817     15820     15816     15814     15812     15822
     15816     15814     15817     15818     15816     15814     15817     15819
     15816     15814     15817     15820     15817     15814     15812     15822
     15817     15820     15822     15823     15817     15820     15822     15827
     15817     15820     15846     15847     15817     15820     15846     15848
     15817     15820     15846     15852     15818     15817     15820     15821
     15818     15817     15820     15822     15818     15817     15820     15846
     15819     15817     15820     15821     15819     15817     15820     15822
     15819     15817     15820     15846     15820     15822     15823     15824
     15820     15822     15823     15825     15820     15822     15823     15826
     15820     15822     15827     15828     15820     15822     15827     15829
     15820     15822     15827     15830     15820     15846     15848     15849
     15820     15846     15848     15850     15820     15846     15848     15851
     15820     15846     15852     15853     15820     15846     15852     15854
     15820     15846     15852     15855     15821     15820     15822     15823
     15821     15820     15822     15827     15821     15820     15846     15847
     15821     15820     15846     15848     15821     15820     15846     15852
     15822     15812     15810     15833     15822     15820     15846     15847
     15822     15820     15846     15848     15822     15820     15846     15852
     15822     15827     15830     15831     15822     15827     15830     15832
     15822     15827     15830     15833     15823     15822     15820     15846
     15823     15822     15827     15828     15823     15822     15827     15829
     15823     15822     15827     15830     15824     15823     15822     15827
     15825     15823     15822     15827     15826     15823     15822     15827
     15827     15822     15820     15846     15827     15830     15833     15834
     15827     15830     15833     15835     15828     15827     15830     15831
     15828     15827     15830     15832     15828     15827     15830     15833
     15829     15827     15830     15831     15829     15827     15830     15832
     15829     15827     15830     15833     15830     15833     15835     15836
     15830     15833     15835     15840     15831     15830     15833     15834
     15831     15830     15833     15835     15832     15830     15833     15834
     15832     15830     15833     15835     15833     15835     15836     15837
     15833     15835     15836     15838     15833     15835     15836     15839
     15833     15835     15840     15841     15833     15835     15840     15842
     15833     15835     15840     15843     15834     15833     15835     15836
     15834     15833     15835     15840     15835     15840     15843     15844
     15835     15840     15843     15845     15836     15835     15840     15841
     15836     15835     15840     15842     15836     15835     15840     15843
     15837     15836     15835     15840     15838     15836     15835     15840
     15839     15836     15835     15840     15841     15840     15843     15844
     15841     15840     15843     15845     15842     15840     15843     15844
     15842     15840     15843     15845     15846     15852     15855     15856
     15846     15852     15855     15857     15846     15852     15855     15858
     15847     15846     15848     15849     15847     15846     15848     15850
     15847     15846     15848     15851     15847     15846     15852     15853
     15847     15846     15852     15854     15847     15846     15852     15855
     15848     15846     15852     15853     15848     15846     15852     15854
     15848     15846     15852     15855     15849     15848     15846     15852
     15850     15848     15846     15852     15851     15848     15846     15852
     15852     15855     15858     15859     15852     15855     15858     15860
     15852     15855     15858     15861     15853     15852     15855     15856
     15853     15852     15855     15857     15853     15852     15855     15858
     15854     15852     15855     15856     15854     15852     15855     15857
     15854     15852     15855     15858     15855     15858     15861     15862
     15855     15858     15861     15863     15855     15858     15861     15867
     15856     15855     15858     15859     15856     15855     15858     15860
     15856     15855     15858     15861     15857     15855     15858     15859
     15857     15855     15858     15860     15857     15855     15858     15861
     15858     15861     15863     15864     15858     15861     15863     15865
     15858     15861     15863     15866     15858     15861     15867     15868
     15858     15861     15867     15869     15858     15861     15867     15870
     15859     15858     15861     15862     15859     15858     15861     15863
     15859     15858     15861     15867     15860     15858     15861     15862
     15860     15858     15861     15863     15860     15858     15861     15867
     15862     15861     15863     15864     15862     15861     15863     15865
     15862     15861     15863     15866     15862     15861     15867     15868
     15862     15861     15867     15869     15862     15861     15867     15870
     15863     15861     15867     15868     15863     15861     15867     15869
     15863     15861     15867     15870     15864     15863     15861     15867
     15865     15863     15861     15867     15866     15863     15861     15867
     15871     15875     15878     15879     15871     15875     15878     15880
     15871     15875     15878     15884     15872     15871     15875     15876
     15872     15871     15875     15877     15872     15871     15875     15878
     15873     15871     15875     15876     15873     15871     15875     15877
     15873     15871     15875     15878     15874     15871     15875     15876
     15874     15871     15875     15877     15874     15871     15875     15878
     15875     15878     15884     15881     15876     15875     15878     15879
     15876     15875     15878     15880     15876     15875     15878     15884
     15877     15875     15878     15879     15877     15875     15878     15880
     15877     15875     15878     15884     15878     15884     15881     15882
     15878     15884     15881     15883     15878     15884     15881     15885
     15879     15878     15884     15881     15880     15878     15884     15881
     15881     15885     15886     15887     15881     15885     15886     15888
     15881     15885     15886     15889     15882     15881     15885     15886
     15883     15881     15885     15886     15884     15881     15885     15886
     15885     15886     15889     15890     15885     15886     15889     15891
     15885     15886     15889     15897     15886     15889     15891     15892
     15886     15889     15897     15898     15886     15889     15897     15899
     15886     15889     15897     15900     15887     15886     15889     15890
     15887     15886     15889     15891     15887     15886     15889     15897
     15888     15886     15889     15890     15888     15886     15889     15891
     15888     15886     15889     15897     15889     15891     15892     15893
     15889     15891     15892     15894     15889     15897     15900     15901
     15890     15889     15891     15892     15890     15889     15897     15898
     15890     15889     15897     15899     15890     15889     15897     15900
     15891     15889     15897     15898     15891     15889     15897     15899
     15891     15889     15897     15900     15891     15892     15894     15895
     15891     15892     15894     15896     15891     15892     15894     15906
     15892     15891     15889     15897     15892     15894     15906     15907
     15892     15894     15906     15908     15892     15894     15906     15909
     15893     15892     15894     15895     15893     15892     15894     15896
     15893     15892     15894     15906     15894     15906     15909     15910
     15894     15906     15909     15911     15894     15906     15909     15912
     15895     15894     15906     15907     15895     15894     15906     15908
     15895     15894     15906     15909     15896     15894     15906     15907
     15896     15894     15906     15908     15896     15894     15906     15909
     15897     15900     15901     15902     15897     15900     15901     15903
     15898     15897     15900     15901     15899     15897     15900     15901
     15900     15901     15903     15904     15900     15901     15903     15905
     15900     15901     15903     15953     15901     15903     15953     15954
     15901     15903     15953     15955     15901     15903     15953     15956
     15902     15901     15903     15904     15902     15901     15903     15905
     15902     15901     15903     15953     15903     15953     15956     15957
     15903     15953     15956     15958     15903     15953     15956     15959
     15904     15903     15953     15954     15904     15903     15953     15955
     15904     15903     15953     15956     15905     15903     15953     15954
     15905     15903     15953     15955     15905     15903     15953     15956
     15906     15909     15912     15913     15906     15909     15912     15914
     15906     15909     15912     15915     15907     15906     15909     15910
     15907     15906     15909     15911     15907     15906     15909     15912
     15908     15906     15909     15910     15908     15906     15909     15911
     15908     15906     15909     15912     15909     15912     15915     15916
     15909     15912     15915     15917     15909     15912     15915     15918
     15910     15909     15912     15913     15910     15909     15912     15914
     15910     15909     15912     15915     15911     15909     15912     15913
     15911     15909     15912     15914     15911     15909     15912     15915
     15912     15915     15918     15919     15912     15915     15918     15920
     15912     15915     15918     15921     15913     15912     15915     15916
     15913     15912     15915     15917     15913     15912     15915     15918
     15914     15912     15915     15916     15914     15912     15915     15917
     15914     15912     15915     15918     15915     15918     15921     15922
     15915     15918     15921     15923     15915     15918     15921     15924
     15916     15915     15918     15919     15916     15915     15918     15920
     15916     15915     15918     15921     15917     15915     15918     15919
     15917     15915     15918     15920     15917     15915     15918     15921
     15918     15921     15924     15925     15918     15921     15924     15926
     15919     15918     15921     15922     15919     15918     15921     15923
     15919     15918     15921     15924     15920     15918     15921     15922
     15920     15918     15921     15923     15920     15918     15921     15924
     15921     15924     15926     15927     15921     15924     15926     15928
     15922     15921     15924     15925     15922     15921     15924     15926
     15923     15921     15924     15925     15923     15921     15924     15926
     15924     15926     15928     15929     15924     15926     15928     15930
     15924     15926     15928     15931     15925     15924     15926     15927
     15925     15924     15926     15928     15926     15928     15931     15932
     15926     15928     15931     15933     15926     15928     15931     15934
     15927     15926     15928     15929     15927     15926     15928     15930
     15927     15926     15928     15931     15928     15931     15934     15935
     15928     15931     15934     15936     15928     15931     15934     15937
     15929     15928     15931     15932     15929     15928     15931     15933
     15929     15928     15931     15934     15930     15928     15931     15932
     15930     15928     15931     15933     15930     15928     15931     15934
     15931     15934     15937     15938     15931     15934     15937     15939
     15931     15934     15937     15940     15932     15931     15934     15935
     15932     15931     15934     15936     15932     15931     15934     15937
     15933     15931     15934     15935     15933     15931     15934     15936
     15933     15931     15934     15937     15934     15937     15940     15941
     15934     15937     15940     15942     15934     15937     15940     15943
     15935     15934     15937     15938     15935     15934     15937     15939
     15935     15934     15937     15940     15936     15934     15937     15938
     15936     15934     15937     15939     15936     15934     15937     15940
     15937     15940     15943     15944     15937     15940     15943     15945
     15937     15940     15943     15946     15938     15937     15940     15941
     15938     15937     15940     15942     15938     15937     15940     15943
     15939     15937     15940     15941     15939     15937     15940     15942
     15939     15937     15940     15943     15940     15943     15946     15947
     15940     15943     15946     15948     15940     15943     15946     15949
     15941     15940     15943     15944     15941     15940     15943     15945
     15941     15940     15943     15946     15942     15940     15943     15944
     15942     15940     15943     15945     15942     15940     15943     15946
     15943     15946     15949     15950     15943     15946     15949     15951
     15943     15946     15949     15952     15944     15943     15946     15947
     15944     15943     15946     15948     15944     15943     15946     15949
     15945     15943     15946     15947     15945     15943     15946     15948
     15945     15943     15946     15949     15947     15946     15949     15950
     15947     15946     15949     15951     15947     15946     15949     15952
     15948     15946     15949     15950     15948     15946     15949     15951
     15948     15946     15949     15952     15953     15956     15959     15960
     15953     15956     15959     15961     15953     15956     15959     15962
     15954     15953     15956     15957     15954     15953     15956     15958
     15954     15953     15956     15959     15955     15953     15956     15957
     15955     15953     15956     15958     15955     15953     15956     15959
     15956     15959     15962     15963     15956     15959     15962     15964
     15956     15959     15962     15965     15957     15956     15959     15960
     15957     15956     15959     15961     15957     15956     15959     15962
     15958     15956     15959     15960     15958     15956     15959     15961
     15958     15956     15959     15962     15959     15962     15965     15966
     15959     15962     15965     15967     15959     15962     15965     15968
     15960     15959     15962     15963     15960     15959     15962     15964
     15960     15959     15962     15965     15961     15959     15962     15963
     15961     15959     15962     15964     15961     15959     15962     15965
     15962     15965     15968     15969     15962     15965     15968     15970
     15962     15965     15968     15971     15963     15962     15965     15966
     15963     15962     15965     15967     15963     15962     15965     15968
     15964     15962     15965     15966     15964     15962     15965     15967
     15964     15962     15965     15968     15965     15968     15971     15972
     15965     15968     15971     15973     15965     15968     15971     15974
     15966     15965     15968     15969     15966     15965     15968     15970
     15966     15965     15968     15971     15967     15965     15968     15969
     15967     15965     15968     15970     15967     15965     15968     15971
     15968     15971     15974     15975     15968     15971     15974     15976
     15968     15971     15974     15977     15969     15968     15971     15972
     15969     15968     15971     15973     15969     15968     15971     15974
     15970     15968     15971     15972     15970     15968     15971     15973
     15970     15968     15971     15974     15971     15974     15977     15978
     15971     15974     15977     15979     15971     15974     15977     15980
     15972     15971     15974     15975     15972     15971     15974     15976
     15972     15971     15974     15977     15973     15971     15974     15975
     15973     15971     15974     15976     15973     15971     15974     15977
     15974     15977     15980     15981     15974     15977     15980     15982
     15974     15977     15980     15983     15975     15974     15977     15978
     15975     15974     15977     15979     15975     15974     15977     15980
     15976     15974     15977     15978     15976     15974     15977     15979
     15976     15974     15977     15980     15977     15980     15983     15984
     15977     15980     15983     15985     15977     15980     15983     15986
     15978     15977     15980     15981     15978     15977     15980     15982
     15978     15977     15980     15983     15979     15977     15980     15981
     15979     15977     15980     15982     15979     15977     15980     15983
     15980     15983     15986     15987     15980     15983     15986     15988
     15980     15983     15986     15989     15981     15980     15983     15984
     15981     15980     15983     15985     15981     15980     15983     15986
     15982     15980     15983     15984     15982     15980     15983     15985
     15982     15980     15983     15986     15983     15986     15989     15990
     15983     15986     15989     15991     15983     15986     15989     15992
     15984     15983     15986     15987     15984     15983     15986     15988
     15984     15983     15986     15989     15985     15983     15986     15987
     15985     15983     15986     15988     15985     15983     15986     15989
     15986     15989     15992     15993     15986     15989     15992     15994
     15986     15989     15992     15995     15987     15986     15989     15990
     15987     15986     15989     15991     15987     15986     15989     15992
     15988     15986     15989     15990     15988     15986     15989     15991
     15988     15986     15989     15992     15989     15992     15995     15996
     15989     15992     15995     15997     15989     15992     15995     15998
     15990     15989     15992     15993     15990     15989     15992     15994
     15990     15989     15992     15995     15991     15989     15992     15993
     15991     15989     15992     15994     15991     15989     15992     15995
     15992     15995     15998     15999     15992     15995     15998     16000
     15992     15995     15998     16001     15993     15992     15995     15996
     15993     15992     15995     15997     15993     15992     15995     15998
     15994     15992     15995     15996     15994     15992     15995     15997
     15994     15992     15995     15998     15996     15995     15998     15999
     15996     15995     15998     16000     15996     15995     15998     16001
     15997     15995     15998     15999     15997     15995     15998     16000
     15997     15995     15998     16001     16002     16006     16009     16010
     16002     16006     16009     16040     16002     16048     16045     16040
     16002     16048     16045     16046     16002     16048     16045     16047
     16003     16002     16004     16005     16003     16002     16006     16007
     16003     16002     16006     16008     16003     16002     16006     16009
     16003     16002     16048     16045     16003     16002     16048     16049
     16003     16002     16048     16050     16004     16002     16006     16007
     16004     16002     16006     16008     16004     16002     16006     16009
     16004     16002     16048     16045     16004     16002     16048     16049
     16004     16002     16048     16050     16005     16004     16002     16006
     16005     16004     16002     16048     16006     16002     16048     16045
     16006     16002     16048     16049     16006     16002     16048     16050
     16006     16009     16010     16011     16006     16009     16010     16012
     16006     16009     16040     16038     16006     16009     16040     16041
     16006     16009     16040     16045     16007     16006     16002     16048
     16007     16006     16009     16010     16007     16006     16009     16040
     16008     16006     16002     16048     16008     16006     16009     16010
     16008     16006     16009     16040     16009     16006     16002     16048
     16009     16010     16012     16013     16009     16010     16012     16014
     16009     16010     16012     16015     16009     16040     16038     16015
     16009     16040     16038     16035     16009     16040     16038     16039
     16009     16040     16041     16042     16009     16040     16041     16043
     16009     16040     16041     16044     16009     16040     16045     16046
     16009     16040     16045     16047     16009     16040     16045     16048
     16010     16009     16040     16038     16010     16009     16040     16041
     16010     16009     16040     16045     16010     16012     16015     16016
     16010     16012     16015     16017     16010     16012     16015     16038
     16011     16010     16009     16040     16011     16010     16012     16013
     16011     16010     16012     16014     16011     16010     16012     16015
     16012     16010     16009     16040     16012     16015     16017     16018
     16012     16015     16017     16019     16012     16015     16017     16027
     16012     16015     16038     16035     16012     16015     16038     16039
     16012     16015     16038     16040     16013     16012     16015     16016
     16013     16012     16015     16017     16013     16012     16015     16038
     16014     16012     16015     16016     16014     16012     16015     16017
     16014     16012     16015     16038     16015     16017     16019     16020
     16015     16017     16019     16021     16015     16017     16019     16022
     16015     16017     16027     16025     16015     16017     16027     16028
     16015     16017     16027     16032     16015     16038     16035     16032
     16015     16038     16035     16036     16015     16038     16035     16037
     16015     16038     16040     16041     16015     16038     16040     16045
     16016     16015     16017     16018     16016     16015     16017     16019
     16016     16015     16017     16027     16016     16015     16038     16035
     16016     16015     16038     16039     16016     16015     16038     16040
     16017     16015     16038     16035     16017     16015     16038     16039
     16017     16015     16038     16040     16017     16019     16022     16023
     16017     16019     16022     16024     16017     16019     16022     16025
     16017     16027     16025     16022     16017     16027     16025     16026
     16017     16027     16025     16051     16017     16027     16028     16029
     16017     16027     16028     16030     16017     16027     16028     16031
     16017     16027     16032     16033     16017     16027     16032     16034
     16017     16027     16032     16035     16018     16017     16015     16038
     16018     16017     16019     16020     16018     16017     16019     16021
     16018     16017     16019     16022     16018     16017     16027     16025
     16018     16017     16027     16028     16018     16017     16027     16032
     16019     16017     16015     16038     16019     16017     16027     16025
     16019     16017     16027     16028     16019     16017     16027     16032
     16019     16022     16025     16026     16019     16022     16025     16027
     16019     16022     16025     16051     16020     16019     16017     16027
     16020     16019     16022     16023     16020     16019     16022     16024
     16020     16019     16022     16025     16021     16019     16017     16027
     16021     16019     16022     16023     16021     16019     16022     16024
     16021     16019     16022     16025     16022     16019     16017     16027
     16022     16025     16027     16028     16022     16025     16027     16032
     16022     16025     16051     16052     16022     16025     16051     16053
     16022     16025     16051     16057     16023     16022     16025     16026
     16023     16022     16025     16027     16023     16022     16025     16051
     16024     16022     16025     16026     16024     16022     16025     16027
     16024     16022     16025     16051     16025     16027     16028     16029
     16025     16027     16028     16030     16025     16027     16028     16031
     16025     16027     16032     16033     16025     16027     16032     16034
     16025     16027     16032     16035     16025     16051     16053     16054
     16025     16051     16053     16055     16025     16051     16053     16056
     16025     16051     16057     16058     16025     16051     16057     16059
     16025     16051     16057     16060     16026     16025     16027     16028
     16026     16025     16027     16032     16026     16025     16051     16052
     16026     16025     16051     16053     16026     16025     16051     16057
     16027     16017     16015     16038     16027     16025     16051     16052
     16027     16025     16051     16053     16027     16025     16051     16057
     16027     16032     16035     16036     16027     16032     16035     16037
     16027     16032     16035     16038     16028     16027     16025     16051
     16028     16027     16032     16033     16028     16027     16032     16034
     16028     16027     16032     16035     16029     16028     16027     16032
     16030     16028     16027     16032     16031     16028     16027     16032
     16032     16027     16025     16051     16032     16035     16038     16039
     16032     16035     16038     16040     16033     16032     16035     16036
     16033     16032     16035     16037     16033     16032     16035     16038
     16034     16032     16035     16036     16034     16032     16035     16037
     16034     16032     16035     16038     16035     16038     16040     16041
     16035     16038     16040     16045     16036     16035     16038     16039
     16036     16035     16038     16040     16037     16035     16038     16039
     16037     16035     16038     16040     16038     16040     16041     16042
     16038     16040     16041     16043     16038     16040     16041     16044
     16038     16040     16045     16046     16038     16040     16045     16047
     16038     16040     16045     16048     16039     16038     16040     16041
     16039     16038     16040     16045     16040     16045     16048     16049
     16040     16045     16048     16050     16041     16040     16045     16046
     16041     16040     16045     16047     16041     16040     16045     16048
     16042     16041     16040     16045     16043     16041     16040     16045
     16044     16041     16040     16045     16046     16045     16048     16049
     16046     16045     16048     16050     16047     16045     16048     16049
     16047     16045     16048     16050     16051     16057     16060     16061
     16051     16057     16060     16062     16051     16057     16060     16063
     16052     16051     16053     16054     16052     16051     16053     16055
     16052     16051     16053     16056     16052     16051     16057     16058
     16052     16051     16057     16059     16052     16051     16057     16060
     16053     16051     16057     16058     16053     16051     16057     16059
     16053     16051     16057     16060     16054     16053     16051     16057
     16055     16053     16051     16057     16056     16053     16051     16057
     16057     16060     16063     16064     16057     16060     16063     16065
     16057     16060     16063     16066     16058     16057     16060     16061
     16058     16057     16060     16062     16058     16057     16060     16063
     16059     16057     16060     16061     16059     16057     16060     16062
     16059     16057     16060     16063     16060     16063     16066     16067
     16060     16063     16066     16068     16060     16063     16066     16072
     16061     16060     16063     16064     16061     16060     16063     16065
     16061     16060     16063     16066     16062     16060     16063     16064
     16062     16060     16063     16065     16062     16060     16063     16066
     16063     16066     16068     16069     16063     16066     16068     16070
     16063     16066     16068     16071     16063     16066     16072     16073
     16063     16066     16072     16074     16063     16066     16072     16075
     16064     16063     16066     16067     16064     16063     16066     16068
     16064     16063     16066     16072     16065     16063     16066     16067
     16065     16063     16066     16068     16065     16063     16066     16072
     16067     16066     16068     16069     16067     16066     16068     16070
     16067     16066     16068     16071     16067     16066     16072     16073
     16067     16066     16072     16074     16067     16066     16072     16075
     16068     16066     16072     16073     16068     16066     16072     16074
     16068     16066     16072     16075     16069     16068     16066     16072
     16070     16068     16066     16072     16071     16068     16066     16072
     16076     16077     16092     16093     16076     16077     16092     16094
     16076     16077     16092     16098     16077     16076     16080     16081
     16077     16076     16080     16082     16077     16076     16080     16083
     16077     16076     16084     16085     16077     16076     16084     16086
     16077     16076     16084     16087     16077     16076     16088     16089
     16077     16076     16088     16090     16077     16076     16088     16091
     16077     16092     16098     16095     16078     16077     16076     16080
     16078     16077     16076     16084     16078     16077     16076     16088
     16078     16077     16092     16093     16078     16077     16092     16094
     16078     16077     16092     16098     16079     16077     16076     16080
     16079     16077     16076     16084     16079     16077     16076     16088
     16079     16077     16092     16093     16079     16077     16092     16094
     16079     16077     16092     16098     16080     16076     16077     16092
     16080     16076     16084     16085     16080     16076     16084     16086
     16080     16076     16084     16087     16080     16076     16088     16089
     16080     16076     16088     16090     16080     16076     16088     16091
     16081     16080     16076     16084     16081     16080     16076     16088
     16082     16080     16076     16084     16082     16080     16076     16088
     16083     16080     16076     16084     16083     16080     16076     16088
     16084     16076     16077     16092     16084     16076     16088     16089
     16084     16076     16088     16090     16084     16076     16088     16091
     16085     16084     16076     16088     16086     16084     16076     16088
     16087     16084     16076     16088     16088     16076     16077     16092
     16092     16098     16095     16096     16092     16098     16095     16097
     16092     16098     16095     16099     16093     16092     16098     16095
     16094     16092     16098     16095     16095     16099     16100     16101
     16095     16099     16100     16102     16095     16099     16100     16103
     16096     16095     16099     16100     16097     16095     16099     16100
     16098     16095     16099     16100     16099     16100     16103     16104
     16099     16100     16103     16105     16099     16100     16103     16111
     16100     16103     16105     16106     16100     16103     16111     16112
     16100     16103     16111     16113     16100     16103     16111     16114
     16101     16100     16103     16104     16101     16100     16103     16105
     16101     16100     16103     16111     16102     16100     16103     16104
     16102     16100     16103     16105     16102     16100     16103     16111
     16103     16105     16106     16107     16103     16105     16106     16108
     16103     16111     16114     16115     16104     16103     16105     16106
     16104     16103     16111     16112     16104     16103     16111     16113
     16104     16103     16111     16114     16105     16103     16111     16112
     16105     16103     16111     16113     16105     16103     16111     16114
     16105     16106     16108     16109     16105     16106     16108     16110
     16105     16106     16108     16120     16106     16105     16103     16111
     16106     16108     16120     16121     16106     16108     16120     16122
     16106     16108     16120     16123     16107     16106     16108     16109
     16107     16106     16108     16110     16107     16106     16108     16120
     16108     16120     16123     16124     16108     16120     16123     16125
     16108     16120     16123     16126     16109     16108     16120     16121
     16109     16108     16120     16122     16109     16108     16120     16123
     16110     16108     16120     16121     16110     16108     16120     16122
     16110     16108     16120     16123     16111     16114     16115     16116
     16111     16114     16115     16117     16112     16111     16114     16115
     16113     16111     16114     16115     16114     16115     16117     16118
     16114     16115     16117     16119     16114     16115     16117     16167
     16115     16117     16167     16168     16115     16117     16167     16169
     16115     16117     16167     16170     16116     16115     16117     16118
     16116     16115     16117     16119     16116     16115     16117     16167
     16117     16167     16170     16171     16117     16167     16170     16172
     16117     16167     16170     16173     16118     16117     16167     16168
     16118     16117     16167     16169     16118     16117     16167     16170
     16119     16117     16167     16168     16119     16117     16167     16169
     16119     16117     16167     16170     16120     16123     16126     16127
     16120     16123     16126     16128     16121     16120     16123     16124
     16121     16120     16123     16125     16121     16120     16123     16126
     16122     16120     16123     16124     16122     16120     16123     16125
     16122     16120     16123     16126     16123     16126     16128     16129
     16123     16126     16128     16130     16124     16123     16126     16127
     16124     16123     16126     16128     16125     16123     16126     16127
     16125     16123     16126     16128     16126     16128     16130     16131
     16126     16128     16130     16132     16126     16128     16130     16133
     16127     16126     16128     16129     16127     16126     16128     16130
     16128     16130     16133     16134     16128     16130     16133     16135
     16129     16128     16130     16131     16129     16128     16130     16132
     16129     16128     16130     16133     16130     16133     16135     16136
     16130     16133     16135     16137     16131     16130     16133     16134
     16131     16130     16133     16135     16132     16130     16133     16134
     16132     16130     16133     16135     16133     16135     16137     16138
     16133     16135     16137     16139     16133     16135     16137     16140
     16134     16133     16135     16136     16134     16133     16135     16137
     16135     16137     16140     16141     16135     16137     16140     16142
     16136     16135     16137     16138     16136     16135     16137     16139
     16136     16135     16137     16140     16137     16140     16142     16143
     16137     16140     16142     16144     16138     16137     16140     16141
     16138     16137     16140     16142     16139     16137     16140     16141
     16139     16137     16140     16142     16140     16142     16144     16145
     16140     16142     16144     16146     16140     16142     16144     16147
     16141     16140     16142     16143     16141     16140     16142     16144
     16142     16144     16147     16148     16142     16144     16147     16149
     16143     16142     16144     16145     16143     16142     16144     16146
     16143     16142     16144     16147     16144     16147     16149     16150
     16144     16147     16149     16151     16145     16144     16147     16148
     16145     16144     16147     16149     16146     16144     16147     16148
     16146     16144     16147     16149     16147     16149     16151     16152
     16147     16149     16151     16153     16147     16149     16151     16154
     16148     16147     16149     16150     16148     16147     16149     16151
     16149     16151     16154     16155     16149     16151     16154     16156
     16149     16151     16154     16157     16150     16149     16151     16152
     16150     16149     16151     16153     16150     16149     16151     16154
     16151     16154     16157     16158     16151     16154     16157     16159
     16151     16154     16157     16160     16152     16151     16154     16155
     16152     16151     16154     16156     16152     16151     16154     16157
     16153     16151     16154     16155     16153     16151     16154     16156
     16153     16151     16154     16157     16154     16157     16160     16161
     16154     16157     16160     16162     16154     16157     16160     16163
     16155     16154     16157     16158     16155     16154     16157     16159
     16155     16154     16157     16160     16156     16154     16157     16158
     16156     16154     16157     16159     16156     16154     16157     16160
     16157     16160     16163     16164     16157     16160     16163     16165
     16157     16160     16163     16166     16158     16157     16160     16161
     16158     16157     16160     16162     16158     16157     16160     16163
     16159     16157     16160     16161     16159     16157     16160     16162
     16159     16157     16160     16163     16161     16160     16163     16164
     16161     16160     16163     16165     16161     16160     16163     16166
     16162     16160     16163     16164     16162     16160     16163     16165
     16162     16160     16163     16166     16167     16170     16173     16174
     16167     16170     16173     16175     16167     16170     16173     16176
     16168     16167     16170     16171     16168     16167     16170     16172
     16168     16167     16170     16173     16169     16167     16170     16171
     16169     16167     16170     16172     16169     16167     16170     16173
     16170     16173     16176     16177     16170     16173     16176     16178
     16170     16173     16176     16179     16171     16170     16173     16174
     16171     16170     16173     16175     16171     16170     16173     16176
     16172     16170     16173     16174     16172     16170     16173     16175
     16172     16170     16173     16176     16173     16176     16179     16180
     16173     16176     16179     16181     16173     16176     16179     16182
     16174     16173     16176     16177     16174     16173     16176     16178
     16174     16173     16176     16179     16175     16173     16176     16177
     16175     16173     16176     16178     16175     16173     16176     16179
     16176     16179     16182     16183     16176     16179     16182     16184
     16176     16179     16182     16185     16177     16176     16179     16180
     16177     16176     16179     16181     16177     16176     16179     16182
     16178     16176     16179     16180     16178     16176     16179     16181
     16178     16176     16179     16182     16179     16182     16185     16186
     16179     16182     16185     16187     16179     16182     16185     16188
     16180     16179     16182     16183     16180     16179     16182     16184
     16180     16179     16182     16185     16181     16179     16182     16183
     16181     16179     16182     16184     16181     16179     16182     16185
     16182     16185     16188     16189     16182     16185     16188     16190
     16182     16185     16188     16191     16183     16182     16185     16186
     16183     16182     16185     16187     16183     16182     16185     16188
     16184     16182     16185     16186     16184     16182     16185     16187
     16184     16182     16185     16188     16185     16188     16191     16192
     16185     16188     16191     16193     16185     16188     16191     16194
     16186     16185     16188     16189     16186     16185     16188     16190
     16186     16185     16188     16191     16187     16185     16188     16189
     16187     16185     16188     16190     16187     16185     16188     16191
     16188     16191     16194     16195     16188     16191     16194     16196
     16188     16191     16194     16197     16189     16188     16191     16192
     16189     16188     16191     16193     16189     16188     16191     16194
     16190     16188     16191     16192     16190     16188     16191     16193
     16190     16188     16191     16194     16191     16194     16197     16198
     16191     16194     16197     16199     16191     16194     16197     16200
     16192     16191     16194     16195     16192     16191     16194     16196
     16192     16191     16194     16197     16193     16191     16194     16195
     16193     16191     16194     16196     16193     16191     16194     16197
     16194     16197     16200     16201     16194     16197     16200     16202
     16194     16197     16200     16203     16195     16194     16197     16198
     16195     16194     16197     16199     16195     16194     16197     16200
     16196     16194     16197     16198     16196     16194     16197     16199
     16196     16194     16197     16200     16197     16200     16203     16204
     16197     16200     16203     16205     16197     16200     16203     16206
     16198     16197     16200     16201     16198     16197     16200     16202
     16198     16197     16200     16203     16199     16197     16200     16201
     16199     16197     16200     16202     16199     16197     16200     16203
     16200     16203     16206     16207     16200     16203     16206     16208
     16200     16203     16206     16209     16201     16200     16203     16204
     16201     16200     16203     16205     16201     16200     16203     16206
     16202     16200     16203     16204     16202     16200     16203     16205
     16202     16200     16203     16206     16203     16206     16209     16210
     16203     16206     16209     16211     16203     16206     16209     16212
     16204     16203     16206     16207     16204     16203     16206     16208
     16204     16203     16206     16209     16205     16203     16206     16207
     16205     16203     16206     16208     16205     16203     16206     16209
     16206     16209     16212     16213     16206     16209     16212     16214
     16206     16209     16212     16215     16207     16206     16209     16210
     16207     16206     16209     16211     16207     16206     16209     16212
     16208     16206     16209     16210     16208     16206     16209     16211
     16208     16206     16209     16212     16210     16209     16212     16213
     16210     16209     16212     16214     16210     16209     16212     16215
     16211     16209     16212     16213     16211     16209     16212     16214
     16211     16209     16212     16215     16216     16220     16222     16223
     16216     16220     16222     16224     16216     16220     16225     16226
     16216     16220     16225     16227     16216     16220     16225     16231
     16217     16216     16220     16221     16217     16216     16220     16222
     16217     16216     16220     16225     16218     16216     16220     16221
     16218     16216     16220     16222     16218     16216     16220     16225
     16219     16216     16220     16221     16219     16216     16220     16222
     16219     16216     16220     16225     16220     16225     16231     16228
     16221     16220     16222     16223     16221     16220     16222     16224
     16221     16220     16225     16226     16221     16220     16225     16227
     16221     16220     16225     16231     16222     16220     16225     16226
     16222     16220     16225     16227     16222     16220     16225     16231
     16223     16222     16220     16225     16224     16222     16220     16225
     16225     16231     16228     16229     16225     16231     16228     16230
     16225     16231     16228     16232     16226     16225     16231     16228
     16227     16225     16231     16228     16228     16232     16233     16234
     16228     16232     16233     16235     16228     16232     16233     16236
     16229     16228     16232     16233     16230     16228     16232     16233
     16231     16228     16232     16233     16232     16233     16236     16237
     16232     16233     16236     16238     16232     16233     16236     16244
     16233     16236     16238     16239     16233     16236     16244     16245
     16233     16236     16244     16246     16233     16236     16244     16247
     16234     16233     16236     16237     16234     16233     16236     16238
     16234     16233     16236     16244     16235     16233     16236     16237
     16235     16233     16236     16238     16235     16233     16236     16244
     16236     16238     16239     16240     16236     16238     16239     16241
     16236     16244     16247     16248     16237     16236     16238     16239
     16237     16236     16244     16245     16237     16236     16244     16246
     16237     16236     16244     16247     16238     16236     16244     16245
     16238     16236     16244     16246     16238     16236     16244     16247
     16238     16239     16241     16242     16238     16239     16241     16243
     16238     16239     16241     16253     16239     16238     16236     16244
     16239     16241     16253     16254     16239     16241     16253     16255
     16239     16241     16253     16256     16240     16239     16241     16242
     16240     16239     16241     16243     16240     16239     16241     16253
     16241     16253     16256     16257     16241     16253     16256     16258
     16241     16253     16256     16259     16242     16241     16253     16254
     16242     16241     16253     16255     16242     16241     16253     16256
     16243     16241     16253     16254     16243     16241     16253     16255
     16243     16241     16253     16256     16244     16247     16248     16249
     16244     16247     16248     16250     16245     16244     16247     16248
     16246     16244     16247     16248     16247     16248     16250     16251
     16247     16248     16250     16252     16247     16248     16250     16300
     16248     16250     16300     16301     16248     16250     16300     16302
     16248     16250     16300     16303     16249     16248     16250     16251
     16249     16248     16250     16252     16249     16248     16250     16300
     16250     16300     16303     16304     16250     16300     16303     16305
     16250     16300     16303     16306     16251     16250     16300     16301
     16251     16250     16300     16302     16251     16250     16300     16303
     16252     16250     16300     16301     16252     16250     16300     16302
     16252     16250     16300     16303     16253     16256     16259     16260
     16253     16256     16259     16261     16254     16253     16256     16257
     16254     16253     16256     16258     16254     16253     16256     16259
     16255     16253     16256     16257     16255     16253     16256     16258
     16255     16253     16256     16259     16256     16259     16261     16262
     16256     16259     16261     16263     16257     16256     16259     16260
     16257     16256     16259     16261     16258     16256     16259     16260
     16258     16256     16259     16261     16259     16261     16263     16264
     16259     16261     16263     16265     16259     16261     16263     16266
     16260     16259     16261     16262     16260     16259     16261     16263
     16261     16263     16266     16267     16261     16263     16266     16268
     16262     16261     16263     16264     16262     16261     16263     16265
     16262     16261     16263     16266     16263     16266     16268     16269
     16263     16266     16268     16270     16264     16263     16266     16267
     16264     16263     16266     16268     16265     16263     16266     16267
     16265     16263     16266     16268     16266     16268     16270     16271
     16266     16268     16270     16272     16266     16268     16270     16273
     16267     16266     16268     16269     16267     16266     16268     16270
     16268     16270     16273     16274     16268     16270     16273     16275
     16269     16268     16270     16271     16269     16268     16270     16272
     16269     16268     16270     16273     16270     16273     16275     16276
     16270     16273     16275     16277     16271     16270     16273     16274
     16271     16270     16273     16275     16272     16270     16273     16274
     16272     16270     16273     16275     16273     16275     16277     16278
     16273     16275     16277     16279     16273     16275     16277     16280
     16274     16273     16275     16276     16274     16273     16275     16277
     16275     16277     16280     16281     16275     16277     16280     16282
     16276     16275     16277     16278     16276     16275     16277     16279
     16276     16275     16277     16280     16277     16280     16282     16283
     16277     16280     16282     16284     16278     16277     16280     16281
     16278     16277     16280     16282     16279     16277     16280     16281
     16279     16277     16280     16282     16280     16282     16284     16285
     16280     16282     16284     16286     16280     16282     16284     16287
     16281     16280     16282     16283     16281     16280     16282     16284
     16282     16284     16287     16288     16282     16284     16287     16289
     16282     16284     16287     16290     16283     16282     16284     16285
     16283     16282     16284     16286     16283     16282     16284     16287
     16284     16287     16290     16291     16284     16287     16290     16292
     16284     16287     16290     16293     16285     16284     16287     16288
     16285     16284     16287     16289     16285     16284     16287     16290
     16286     16284     16287     16288     16286     16284     16287     16289
     16286     16284     16287     16290     16287     16290     16293     16294
     16287     16290     16293     16295     16287     16290     16293     16296
     16288     16287     16290     16291     16288     16287     16290     16292
     16288     16287     16290     16293     16289     16287     16290     16291
     16289     16287     16290     16292     16289     16287     16290     16293
     16290     16293     16296     16297     16290     16293     16296     16298
     16290     16293     16296     16299     16291     16290     16293     16294
     16291     16290     16293     16295     16291     16290     16293     16296
     16292     16290     16293     16294     16292     16290     16293     16295
     16292     16290     16293     16296     16294     16293     16296     16297
     16294     16293     16296     16298     16294     16293     16296     16299
     16295     16293     16296     16297     16295     16293     16296     16298
     16295     16293     16296     16299     16300     16303     16306     16307
     16300     16303     16306     16308     16300     16303     16306     16309
     16301     16300     16303     16304     16301     16300     16303     16305
     16301     16300     16303     16306     16302     16300     16303     16304
     16302     16300     16303     16305     16302     16300     16303     16306
     16303     16306     16309     16310     16303     16306     16309     16311
     16303     16306     16309     16312     16304     16303     16306     16307
     16304     16303     16306     16308     16304     16303     16306     16309
     16305     16303     16306     16307     16305     16303     16306     16308
     16305     16303     16306     16309     16306     16309     16312     16313
     16306     16309     16312     16314     16306     16309     16312     16315
     16307     16306     16309     16310     16307     16306     16309     16311
     16307     16306     16309     16312     16308     16306     16309     16310
     16308     16306     16309     16311     16308     16306     16309     16312
     16309     16312     16315     16316     16309     16312     16315     16317
     16309     16312     16315     16318     16310     16309     16312     16313
     16310     16309     16312     16314     16310     16309     16312     16315
     16311     16309     16312     16313     16311     16309     16312     16314
     16311     16309     16312     16315     16312     16315     16318     16319
     16312     16315     16318     16320     16312     16315     16318     16321
     16313     16312     16315     16316     16313     16312     16315     16317
     16313     16312     16315     16318     16314     16312     16315     16316
     16314     16312     16315     16317     16314     16312     16315     16318
     16315     16318     16321     16322     16315     16318     16321     16323
     16315     16318     16321     16324     16316     16315     16318     16319
     16316     16315     16318     16320     16316     16315     16318     16321
     16317     16315     16318     16319     16317     16315     16318     16320
     16317     16315     16318     16321     16318     16321     16324     16325
     16318     16321     16324     16326     16318     16321     16324     16327
     16319     16318     16321     16322     16319     16318     16321     16323
     16319     16318     16321     16324     16320     16318     16321     16322
     16320     16318     16321     16323     16320     16318     16321     16324
     16321     16324     16327     16328     16321     16324     16327     16329
     16321     16324     16327     16330     16322     16321     16324     16325
     16322     16321     16324     16326     16322     16321     16324     16327
     16323     16321     16324     16325     16323     16321     16324     16326
     16323     16321     16324     16327     16324     16327     16330     16331
     16324     16327     16330     16332     16324     16327     16330     16333
     16325     16324     16327     16328     16325     16324     16327     16329
     16325     16324     16327     16330     16326     16324     16327     16328
     16326     16324     16327     16329     16326     16324     16327     16330
     16327     16330     16333     16334     16327     16330     16333     16335
     16327     16330     16333     16336     16328     16327     16330     16331
     16328     16327     16330     16332     16328     16327     16330     16333
     16329     16327     16330     16331     16329     16327     16330     16332
     16329     16327     16330     16333     16330     16333     16336     16337
     16330     16333     16336     16338     16330     16333     16336     16339
     16331     16330     16333     16334     16331     16330     16333     16335
     16331     16330     16333     16336     16332     16330     16333     16334
     16332     16330     16333     16335     16332     16330     16333     16336
     16333     16336     16339     16340     16333     16336     16339     16341
     16333     16336     16339     16342     16334     16333     16336     16337
     16334     16333     16336     16338     16334     16333     16336     16339
     16335     16333     16336     16337     16335     16333     16336     16338
     16335     16333     16336     16339     16336     16339     16342     16343
     16336     16339     16342     16344     16336     16339     16342     16345
     16337     16336     16339     16340     16337     16336     16339     16341
     16337     16336     16339     16342     16338     16336     16339     16340
     16338     16336     16339     16341     16338     16336     16339     16342
     16339     16342     16345     16346     16339     16342     16345     16347
     16339     16342     16345     16348     16340     16339     16342     16343
     16340     16339     16342     16344     16340     16339     16342     16345
     16341     16339     16342     16343     16341     16339     16342     16344
     16341     16339     16342     16345     16343     16342     16345     16346
     16343     16342     16345     16347     16343     16342     16345     16348
     16344     16342     16345     16346     16344     16342     16345     16347
     16344     16342     16345     16348     16349     16362     16365     16366
     16349     16362     16365     16367     16349     16362     16365     16371
     16350     16349     16354     16355     16350     16349     16354     16356
     16350     16349     16354     16357     16350     16349     16358     16359
     16350     16349     16358     16360     16350     16349     16358     16361
     16350     16349     16362     16363     16350     16349     16362     16364
     16350     16349     16362     16365     16351     16350     16349     16354
     16351     16350     16349     16358     16351     16350     16349     16362
     16352     16350     16349     16354     16352     16350     16349     16358
     16352     16350     16349     16362     16353     16350     16349     16354
     16353     16350     16349     16358     16353     16350     16349     16362
     16354     16349     16358     16359     16354     16349     16358     16360
     16354     16349     16358     16361     16354     16349     16362     16363
     16354     16349     16362     16364     16354     16349     16362     16365
     16355     16354     16349     16358     16355     16354     16349     16362
     16356     16354     16349     16358     16356     16354     16349     16362
     16357     16354     16349     16358     16357     16354     16349     16362
     16358     16349     16362     16363     16358     16349     16362     16364
     16358     16349     16362     16365     16359     16358     16349     16362
     16360     16358     16349     16362     16361     16358     16349     16362
     16362     16365     16371     16368     16363     16362     16365     16366
     16363     16362     16365     16367     16363     16362     16365     16371
     16364     16362     16365     16366     16364     16362     16365     16367
     16364     16362     16365     16371     16365     16371     16368     16369
     16365     16371     16368     16370     16365     16371     16368     16372
     16366     16365     16371     16368     16367     16365     16371     16368
     16368     16372     16373     16374     16368     16372     16373     16375
     16368     16372     16373     16376     16369     16368     16372     16373
     16370     16368     16372     16373     16371     16368     16372     16373
     16372     16373     16376     16377     16372     16373     16376     16378
     16372     16373     16376     16384     16373     16376     16378     16379
     16373     16376     16384     16385     16373     16376     16384     16386
     16373     16376     16384     16387     16374     16373     16376     16377
     16374     16373     16376     16378     16374     16373     16376     16384
     16375     16373     16376     16377     16375     16373     16376     16378
     16375     16373     16376     16384     16376     16378     16379     16380
     16376     16378     16379     16381     16376     16384     16387     16388
     16377     16376     16378     16379     16377     16376     16384     16385
     16377     16376     16384     16386     16377     16376     16384     16387
     16378     16376     16384     16385     16378     16376     16384     16386
     16378     16376     16384     16387     16378     16379     16381     16382
     16378     16379     16381     16383     16378     16379     16381     16393
     16379     16378     16376     16384     16379     16381     16393     16394
     16379     16381     16393     16395     16379     16381     16393     16396
     16380     16379     16381     16382     16380     16379     16381     16383
     16380     16379     16381     16393     16381     16393     16396     16397
     16381     16393     16396     16398     16381     16393     16396     16399
     16382     16381     16393     16394     16382     16381     16393     16395
     16382     16381     16393     16396     16383     16381     16393     16394
     16383     16381     16393     16395     16383     16381     16393     16396
     16384     16387     16388     16389     16384     16387     16388     16390
     16385     16384     16387     16388     16386     16384     16387     16388
     16387     16388     16390     16391     16387     16388     16390     16392
     16387     16388     16390     16438     16388     16390     16438     16439
     16388     16390     16438     16440     16388     16390     16438     16441
     16389     16388     16390     16391     16389     16388     16390     16392
     16389     16388     16390     16438     16390     16438     16441     16442
     16390     16438     16441     16443     16390     16438     16441     16444
     16391     16390     16438     16439     16391     16390     16438     16440
     16391     16390     16438     16441     16392     16390     16438     16439
     16392     16390     16438     16440     16392     16390     16438     16441
     16393     16396     16399     16400     16393     16396     16399     16401
     16393     16396     16399     16402     16394     16393     16396     16397
     16394     16393     16396     16398     16394     16393     16396     16399
     16395     16393     16396     16397     16395     16393     16396     16398
     16395     16393     16396     16399     16396     16399     16402     16403
     16396     16399     16402     16404     16396     16399     16402     16405
     16397     16396     16399     16400     16397     16396     16399     16401
     16397     16396     16399     16402     16398     16396     16399     16400
     16398     16396     16399     16401     16398     16396     16399     16402
     16399     16402     16405     16406     16399     16402     16405     16407
     16399     16402     16405     16408     16400     16399     16402     16403
     16400     16399     16402     16404     16400     16399     16402     16405
     16401     16399     16402     16403     16401     16399     16402     16404
     16401     16399     16402     16405     16402     16405     16408     16409
     16402     16405     16408     16410     16402     16405     16408     16411
     16403     16402     16405     16406     16403     16402     16405     16407
     16403     16402     16405     16408     16404     16402     16405     16406
     16404     16402     16405     16407     16404     16402     16405     16408
     16405     16408     16411     16412     16405     16408     16411     16413
     16406     16405     16408     16409     16406     16405     16408     16410
     16406     16405     16408     16411     16407     16405     16408     16409
     16407     16405     16408     16410     16407     16405     16408     16411
     16408     16411     16413     16414     16408     16411     16413     16415
     16409     16408     16411     16412     16409     16408     16411     16413
     16410     16408     16411     16412     16410     16408     16411     16413
     16411     16413     16415     16416     16411     16413     16415     16417
     16411     16413     16415     16418     16412     16411     16413     16414
     16412     16411     16413     16415     16413     16415     16418     16419
     16413     16415     16418     16420     16414     16413     16415     16416
     16414     16413     16415     16417     16414     16413     16415     16418
     16415     16418     16420     16421     16415     16418     16420     16422
     16416     16415     16418     16419     16416     16415     16418     16420
     16417     16415     16418     16419     16417     16415     16418     16420
     16418     16420     16422     16423     16418     16420     16422     16424
     16418     16420     16422     16425     16419     16418     16420     16421
     16419     16418     16420     16422     16420     16422     16425     16426
     16420     16422     16425     16427     16420     16422     16425     16428
     16421     16420     16422     16423     16421     16420     16422     16424
     16421     16420     16422     16425     16422     16425     16428     16429
     16422     16425     16428     16430     16422     16425     16428     16431
     16423     16422     16425     16426     16423     16422     16425     16427
     16423     16422     16425     16428     16424     16422     16425     16426
     16424     16422     16425     16427     16424     16422     16425     16428
     16425     16428     16431     16432     16425     16428     16431     16433
     16425     16428     16431     16434     16426     16425     16428     16429
     16426     16425     16428     16430     16426     16425     16428     16431
     16427     16425     16428     16429     16427     16425     16428     16430
     16427     16425     16428     16431     16428     16431     16434     16435
     16428     16431     16434     16436     16428     16431     16434     16437
     16429     16428     16431     16432     16429     16428     16431     16433
     16429     16428     16431     16434     16430     16428     16431     16432
     16430     16428     16431     16433     16430     16428     16431     16434
     16432     16431     16434     16435     16432     16431     16434     16436
     16432     16431     16434     16437     16433     16431     16434     16435
     16433     16431     16434     16436     16433     16431     16434     16437
     16438     16441     16444     16445     16438     16441     16444     16446
     16438     16441     16444     16447     16439     16438     16441     16442
     16439     16438     16441     16443     16439     16438     16441     16444
     16440     16438     16441     16442     16440     16438     16441     16443
     16440     16438     16441     16444     16441     16444     16447     16448
     16441     16444     16447     16449     16441     16444     16447     16450
     16442     16441     16444     16445     16442     16441     16444     16446
     16442     16441     16444     16447     16443     16441     16444     16445
     16443     16441     16444     16446     16443     16441     16444     16447
     16444     16447     16450     16451     16444     16447     16450     16452
     16444     16447     16450     16453     16445     16444     16447     16448
     16445     16444     16447     16449     16445     16444     16447     16450
     16446     16444     16447     16448     16446     16444     16447     16449
     16446     16444     16447     16450     16447     16450     16453     16454
     16447     16450     16453     16455     16447     16450     16453     16456
     16448     16447     16450     16451     16448     16447     16450     16452
     16448     16447     16450     16453     16449     16447     16450     16451
     16449     16447     16450     16452     16449     16447     16450     16453
     16450     16453     16456     16457     16450     16453     16456     16458
     16450     16453     16456     16459     16451     16450     16453     16454
     16451     16450     16453     16455     16451     16450     16453     16456
     16452     16450     16453     16454     16452     16450     16453     16455
     16452     16450     16453     16456     16453     16456     16459     16460
     16453     16456     16459     16461     16453     16456     16459     16462
     16454     16453     16456     16457     16454     16453     16456     16458
     16454     16453     16456     16459     16455     16453     16456     16457
     16455     16453     16456     16458     16455     16453     16456     16459
     16456     16459     16462     16463     16456     16459     16462     16464
     16456     16459     16462     16465     16457     16456     16459     16460
     16457     16456     16459     16461     16457     16456     16459     16462
     16458     16456     16459     16460     16458     16456     16459     16461
     16458     16456     16459     16462     16459     16462     16465     16466
     16459     16462     16465     16467     16459     16462     16465     16468
     16460     16459     16462     16463     16460     16459     16462     16464
     16460     16459     16462     16465     16461     16459     16462     16463
     16461     16459     16462     16464     16461     16459     16462     16465
     16462     16465     16468     16469     16462     16465     16468     16470
     16462     16465     16468     16471     16463     16462     16465     16466
     16463     16462     16465     16467     16463     16462     16465     16468
     16464     16462     16465     16466     16464     16462     16465     16467
     16464     16462     16465     16468     16465     16468     16471     16472
     16465     16468     16471     16473     16465     16468     16471     16474
     16466     16465     16468     16469     16466     16465     16468     16470
     16466     16465     16468     16471     16467     16465     16468     16469
     16467     16465     16468     16470     16467     16465     16468     16471
     16468     16471     16474     16475     16468     16471     16474     16476
     16468     16471     16474     16477     16469     16468     16471     16472
     16469     16468     16471     16473     16469     16468     16471     16474
     16470     16468     16471     16472     16470     16468     16471     16473
     16470     16468     16471     16474     16471     16474     16477     16478
     16471     16474     16477     16479     16471     16474     16477     16480
     16472     16471     16474     16475     16472     16471     16474     16476
     16472     16471     16474     16477     16473     16471     16474     16475
     16473     16471     16474     16476     16473     16471     16474     16477
     16474     16477     16480     16481     16474     16477     16480     16482
     16474     16477     16480     16483     16475     16474     16477     16478
     16475     16474     16477     16479     16475     16474     16477     16480
     16476     16474     16477     16478     16476     16474     16477     16479
     16476     16474     16477     16480     16477     16480     16483     16484
     16477     16480     16483     16485     16477     16480     16483     16486
     16478     16477     16480     16481     16478     16477     16480     16482
     16478     16477     16480     16483     16479     16477     16480     16481
     16479     16477     16480     16482     16479     16477     16480     16483
     16481     16480     16483     16484     16481     16480     16483     16485
     16481     16480     16483     16486     16482     16480     16483     16484
     16482     16480     16483     16485     16482     16480     16483     16486
     16487     16491     16494     16495     16487     16491     16494     16525
     16487     16533     16530     16525     16487     16533     16530     16531
     16487     16533     16530     16532     16488     16487     16489     16490
     16488     16487     16491     16492     16488     16487     16491     16493
     16488     16487     16491     16494     16488     16487     16533     16530
     16488     16487     16533     16534     16488     16487     16533     16535
     16489     16487     16491     16492     16489     16487     16491     16493
     16489     16487     16491     16494     16489     16487     16533     16530
     16489     16487     16533     16534     16489     16487     16533     16535
     16490     16489     16487     16491     16490     16489     16487     16533
     16491     16487     16533     16530     16491     16487     16533     16534
     16491     16487     16533     16535     16491     16494     16495     16496
     16491     16494     16495     16497     16491     16494     16525     16523
     16491     16494     16525     16526     16491     16494     16525     16530
     16492     16491     16487     16533     16492     16491     16494     16495
     16492     16491     16494     16525     16493     16491     16487     16533
     16493     16491     16494     16495     16493     16491     16494     16525
     16494     16491     16487     16533     16494     16495     16497     16498
     16494     16495     16497     16499     16494     16495     16497     16500
     16494     16525     16523     16500     16494     16525     16523     16520
     16494     16525     16523     16524     16494     16525     16526     16527
     16494     16525     16526     16528     16494     16525     16526     16529
     16494     16525     16530     16531     16494     16525     16530     16532
     16494     16525     16530     16533     16495     16494     16525     16523
     16495     16494     16525     16526     16495     16494     16525     16530
     16495     16497     16500     16501     16495     16497     16500     16502
     16495     16497     16500     16523     16496     16495     16494     16525
     16496     16495     16497     16498     16496     16495     16497     16499
     16496     16495     16497     16500     16497     16495     16494     16525
     16497     16500     16502     16503     16497     16500     16502     16504
     16497     16500     16502     16512     16497     16500     16523     16520
     16497     16500     16523     16524     16497     16500     16523     16525
     16498     16497     16500     16501     16498     16497     16500     16502
     16498     16497     16500     16523     16499     16497     16500     16501
     16499     16497     16500     16502     16499     16497     16500     16523
     16500     16502     16504     16505     16500     16502     16504     16506
     16500     16502     16504     16507     16500     16502     16512     16510
     16500     16502     16512     16513     16500     16502     16512     16517
     16500     16523     16520     16517     16500     16523     16520     16521
     16500     16523     16520     16522     16500     16523     16525     16526
     16500     16523     16525     16530     16501     16500     16502     16503
     16501     16500     16502     16504     16501     16500     16502     16512
     16501     16500     16523     16520     16501     16500     16523     16524
     16501     16500     16523     16525     16502     16500     16523     16520
     16502     16500     16523     16524     16502     16500     16523     16525
     16502     16504     16507     16508     16502     16504     16507     16509
     16502     16504     16507     16510     16502     16512     16510     16507
     16502     16512     16510     16511     16502     16512     16510     16536
     16502     16512     16513     16514     16502     16512     16513     16515
     16502     16512     16513     16516     16502     16512     16517     16518
     16502     16512     16517     16519     16502     16512     16517     16520
     16503     16502     16500     16523     16503     16502     16504     16505
     16503     16502     16504     16506     16503     16502     16504     16507
     16503     16502     16512     16510     16503     16502     16512     16513
     16503     16502     16512     16517     16504     16502     16500     16523
     16504     16502     16512     16510     16504     16502     16512     16513
     16504     16502     16512     16517     16504     16507     16510     16511
     16504     16507     16510     16512     16504     16507     16510     16536
     16505     16504     16502     16512     16505     16504     16507     16508
     16505     16504     16507     16509     16505     16504     16507     16510
     16506     16504     16502     16512     16506     16504     16507     16508
     16506     16504     16507     16509     16506     16504     16507     16510
     16507     16504     16502     16512     16507     16510     16512     16513
     16507     16510     16512     16517     16507     16510     16536     16537
     16507     16510     16536     16538     16507     16510     16536     16542
     16508     16507     16510     16511     16508     16507     16510     16512
     16508     16507     16510     16536     16509     16507     16510     16511
     16509     16507     16510     16512     16509     16507     16510     16536
     16510     16512     16513     16514     16510     16512     16513     16515
     16510     16512     16513     16516     16510     16512     16517     16518
     16510     16512     16517     16519     16510     16512     16517     16520
     16510     16536     16538     16539     16510     16536     16538     16540
     16510     16536     16538     16541     16510     16536     16542     16543
     16510     16536     16542     16544     16510     16536     16542     16545
     16511     16510     16512     16513     16511     16510     16512     16517
     16511     16510     16536     16537     16511     16510     16536     16538
     16511     16510     16536     16542     16512     16502     16500     16523
     16512     16510     16536     16537     16512     16510     16536     16538
     16512     16510     16536     16542     16512     16517     16520     16521
     16512     16517     16520     16522     16512     16517     16520     16523
     16513     16512     16510     16536     16513     16512     16517     16518
     16513     16512     16517     16519     16513     16512     16517     16520
     16514     16513     16512     16517     16515     16513     16512     16517
     16516     16513     16512     16517     16517     16512     16510     16536
     16517     16520     16523     16524     16517     16520     16523     16525
     16518     16517     16520     16521     16518     16517     16520     16522
     16518     16517     16520     16523     16519     16517     16520     16521
     16519     16517     16520     16522     16519     16517     16520     16523
     16520     16523     16525     16526     16520     16523     16525     16530
     16521     16520     16523     16524     16521     16520     16523     16525
     16522     16520     16523     16524     16522     16520     16523     16525
     16523     16525     16526     16527     16523     16525     16526     16528
     16523     16525     16526     16529     16523     16525     16530     16531
     16523     16525     16530     16532     16523     16525     16530     16533
     16524     16523     16525     16526     16524     16523     16525     16530
     16525     16530     16533     16534     16525     16530     16533     16535
     16526     16525     16530     16531     16526     16525     16530     16532
     16526     16525     16530     16533     16527     16526     16525     16530
     16528     16526     16525     16530     16529     16526     16525     16530
     16531     16530     16533     16534     16531     16530     16533     16535
     16532     16530     16533     16534     16532     16530     16533     16535
     16536     16542     16545     16546     16536     16542     16545     16547
     16536     16542     16545     16548     16537     16536     16538     16539
     16537     16536     16538     16540     16537     16536     16538     16541
     16537     16536     16542     16543     16537     16536     16542     16544
     16537     16536     16542     16545     16538     16536     16542     16543
     16538     16536     16542     16544     16538     16536     16542     16545
     16539     16538     16536     16542     16540     16538     16536     16542
     16541     16538     16536     16542     16542     16545     16548     16549
     16542     16545     16548     16550     16542     16545     16548     16551
     16543     16542     16545     16546     16543     16542     16545     16547
     16543     16542     16545     16548     16544     16542     16545     16546
     16544     16542     16545     16547     16544     16542     16545     16548
     16545     16548     16551     16552     16545     16548     16551     16553
     16545     16548     16551     16557     16546     16545     16548     16549
     16546     16545     16548     16550     16546     16545     16548     16551
     16547     16545     16548     16549     16547     16545     16548     16550
     16547     16545     16548     16551     16548     16551     16553     16554
     16548     16551     16553     16555     16548     16551     16553     16556
     16548     16551     16557     16558     16548     16551     16557     16559
     16548     16551     16557     16560     16549     16548     16551     16552
     16549     16548     16551     16553     16549     16548     16551     16557
     16550     16548     16551     16552     16550     16548     16551     16553
     16550     16548     16551     16557     16552     16551     16553     16554
     16552     16551     16553     16555     16552     16551     16553     16556
     16552     16551     16557     16558     16552     16551     16557     16559
     16552     16551     16557     16560     16553     16551     16557     16558
     16553     16551     16557     16559     16553     16551     16557     16560
     16554     16553     16551     16557     16555     16553     16551     16557
     16556     16553     16551     16557     16561     16562     16577     16578
     16561     16562     16577     16579     16561     16562     16577     16583
     16562     16561     16565     16566     16562     16561     16565     16567
     16562     16561     16565     16568     16562     16561     16569     16570
     16562     16561     16569     16571     16562     16561     16569     16572
     16562     16561     16573     16574     16562     16561     16573     16575
     16562     16561     16573     16576     16562     16577     16583     16580
     16563     16562     16561     16565     16563     16562     16561     16569
     16563     16562     16561     16573     16563     16562     16577     16578
     16563     16562     16577     16579     16563     16562     16577     16583
     16564     16562     16561     16565     16564     16562     16561     16569
     16564     16562     16561     16573     16564     16562     16577     16578
     16564     16562     16577     16579     16564     16562     16577     16583
     16565     16561     16562     16577     16565     16561     16569     16570
     16565     16561     16569     16571     16565     16561     16569     16572
     16565     16561     16573     16574     16565     16561     16573     16575
     16565     16561     16573     16576     16566     16565     16561     16569
     16566     16565     16561     16573     16567     16565     16561     16569
     16567     16565     16561     16573     16568     16565     16561     16569
     16568     16565     16561     16573     16569     16561     16562     16577
     16569     16561     16573     16574     16569     16561     16573     16575
     16569     16561     16573     16576     16570     16569     16561     16573
     16571     16569     16561     16573     16572     16569     16561     16573
     16573     16561     16562     16577     16577     16583     16580     16581
     16577     16583     16580     16582     16577     16583     16580     16584
     16578     16577     16583     16580     16579     16577     16583     16580
     16580     16584     16585     16586     16580     16584     16585     16587
     16580     16584     16585     16588     16581     16580     16584     16585
     16582     16580     16584     16585     16583     16580     16584     16585
     16584     16585     16588     16589     16584     16585     16588     16590
     16584     16585     16588     16596     16585     16588     16590     16591
     16585     16588     16596     16597     16585     16588     16596     16598
     16585     16588     16596     16599     16586     16585     16588     16589
     16586     16585     16588     16590     16586     16585     16588     16596
     16587     16585     16588     16589     16587     16585     16588     16590
     16587     16585     16588     16596     16588     16590     16591     16592
     16588     16590     16591     16593     16588     16596     16599     16600
     16589     16588     16590     16591     16589     16588     16596     16597
     16589     16588     16596     16598     16589     16588     16596     16599
     16590     16588     16596     16597     16590     16588     16596     16598
     16590     16588     16596     16599     16590     16591     16593     16594
     16590     16591     16593     16595     16590     16591     16593     16605
     16591     16590     16588     16596     16591     16593     16605     16606
     16591     16593     16605     16607     16591     16593     16605     16608
     16592     16591     16593     16594     16592     16591     16593     16595
     16592     16591     16593     16605     16593     16605     16608     16609
     16593     16605     16608     16610     16593     16605     16608     16611
     16594     16593     16605     16606     16594     16593     16605     16607
     16594     16593     16605     16608     16595     16593     16605     16606
     16595     16593     16605     16607     16595     16593     16605     16608
     16596     16599     16600     16601     16596     16599     16600     16602
     16597     16596     16599     16600     16598     16596     16599     16600
     16599     16600     16602     16603     16599     16600     16602     16604
     16599     16600     16602     16652     16600     16602     16652     16653
     16600     16602     16652     16654     16600     16602     16652     16655
     16601     16600     16602     16603     16601     16600     16602     16604
     16601     16600     16602     16652     16602     16652     16655     16656
     16602     16652     16655     16657     16602     16652     16655     16658
     16603     16602     16652     16653     16603     16602     16652     16654
     16603     16602     16652     16655     16604     16602     16652     16653
     16604     16602     16652     16654     16604     16602     16652     16655
     16605     16608     16611     16612     16605     16608     16611     16613
     16606     16605     16608     16609     16606     16605     16608     16610
     16606     16605     16608     16611     16607     16605     16608     16609
     16607     16605     16608     16610     16607     16605     16608     16611
     16608     16611     16613     16614     16608     16611     16613     16615
     16609     16608     16611     16612     16609     16608     16611     16613
     16610     16608     16611     16612     16610     16608     16611     16613
     16611     16613     16615     16616     16611     16613     16615     16617
     16611     16613     16615     16618     16612     16611     16613     16614
     16612     16611     16613     16615     16613     16615     16618     16619
     16613     16615     16618     16620     16614     16613     16615     16616
     16614     16613     16615     16617     16614     16613     16615     16618
     16615     16618     16620     16621     16615     16618     16620     16622
     16616     16615     16618     16619     16616     16615     16618     16620
     16617     16615     16618     16619     16617     16615     16618     16620
     16618     16620     16622     16623     16618     16620     16622     16624
     16618     16620     16622     16625     16619     16618     16620     16621
     16619     16618     16620     16622     16620     16622     16625     16626
     16620     16622     16625     16627     16621     16620     16622     16623
     16621     16620     16622     16624     16621     16620     16622     16625
     16622     16625     16627     16628     16622     16625     16627     16629
     16623     16622     16625     16626     16623     16622     16625     16627
     16624     16622     16625     16626     16624     16622     16625     16627
     16625     16627     16629     16630     16625     16627     16629     16631
     16625     16627     16629     16632     16626     16625     16627     16628
     16626     16625     16627     16629     16627     16629     16632     16633
     16627     16629     16632     16634     16628     16627     16629     16630
     16628     16627     16629     16631     16628     16627     16629     16632
     16629     16632     16634     16635     16629     16632     16634     16636
     16630     16629     16632     16633     16630     16629     16632     16634
     16631     16629     16632     16633     16631     16629     16632     16634
     16632     16634     16636     16637     16632     16634     16636     16638
     16632     16634     16636     16639     16633     16632     16634     16635
     16633     16632     16634     16636     16634     16636     16639     16640
     16634     16636     16639     16641     16634     16636     16639     16642
     16635     16634     16636     16637     16635     16634     16636     16638
     16635     16634     16636     16639     16636     16639     16642     16643
     16636     16639     16642     16644     16636     16639     16642     16645
     16637     16636     16639     16640     16637     16636     16639     16641
     16637     16636     16639     16642     16638     16636     16639     16640
     16638     16636     16639     16641     16638     16636     16639     16642
     16639     16642     16645     16646     16639     16642     16645     16647
     16639     16642     16645     16648     16640     16639     16642     16643
     16640     16639     16642     16644     16640     16639     16642     16645
     16641     16639     16642     16643     16641     16639     16642     16644
     16641     16639     16642     16645     16642     16645     16648     16649
     16642     16645     16648     16650     16642     16645     16648     16651
     16643     16642     16645     16646     16643     16642     16645     16647
     16643     16642     16645     16648     16644     16642     16645     16646
     16644     16642     16645     16647     16644     16642     16645     16648
     16646     16645     16648     16649     16646     16645     16648     16650
     16646     16645     16648     16651     16647     16645     16648     16649
     16647     16645     16648     16650     16647     16645     16648     16651
     16652     16655     16658     16659     16652     16655     16658     16660
     16652     16655     16658     16661     16653     16652     16655     16656
     16653     16652     16655     16657     16653     16652     16655     16658
     16654     16652     16655     16656     16654     16652     16655     16657
     16654     16652     16655     16658     16655     16658     16661     16662
     16655     16658     16661     16663     16655     16658     16661     16664
     16656     16655     16658     16659     16656     16655     16658     16660
     16656     16655     16658     16661     16657     16655     16658     16659
     16657     16655     16658     16660     16657     16655     16658     16661
     16658     16661     16664     16665     16658     16661     16664     16666
     16658     16661     16664     16667     16659     16658     16661     16662
     16659     16658     16661     16663     16659     16658     16661     16664
     16660     16658     16661     16662     16660     16658     16661     16663
     16660     16658     16661     16664     16661     16664     16667     16668
     16661     16664     16667     16669     16661     16664     16667     16670
     16662     16661     16664     16665     16662     16661     16664     16666
     16662     16661     16664     16667     16663     16661     16664     16665
     16663     16661     16664     16666     16663     16661     16664     16667
     16664     16667     16670     16671     16664     16667     16670     16672
     16664     16667     16670     16673     16665     16664     16667     16668
     16665     16664     16667     16669     16665     16664     16667     16670
     16666     16664     16667     16668     16666     16664     16667     16669
     16666     16664     16667     16670     16667     16670     16673     16674
     16667     16670     16673     16675     16667     16670     16673     16676
     16668     16667     16670     16671     16668     16667     16670     16672
     16668     16667     16670     16673     16669     16667     16670     16671
     16669     16667     16670     16672     16669     16667     16670     16673
     16670     16673     16676     16677     16670     16673     16676     16678
     16670     16673     16676     16679     16671     16670     16673     16674
     16671     16670     16673     16675     16671     16670     16673     16676
     16672     16670     16673     16674     16672     16670     16673     16675
     16672     16670     16673     16676     16673     16676     16679     16680
     16673     16676     16679     16681     16673     16676     16679     16682
     16674     16673     16676     16677     16674     16673     16676     16678
     16674     16673     16676     16679     16675     16673     16676     16677
     16675     16673     16676     16678     16675     16673     16676     16679
     16676     16679     16682     16683     16676     16679     16682     16684
     16676     16679     16682     16685     16677     16676     16679     16680
     16677     16676     16679     16681     16677     16676     16679     16682
     16678     16676     16679     16680     16678     16676     16679     16681
     16678     16676     16679     16682     16679     16682     16685     16686
     16679     16682     16685     16687     16679     16682     16685     16688
     16680     16679     16682     16683     16680     16679     16682     16684
     16680     16679     16682     16685     16681     16679     16682     16683
     16681     16679     16682     16684     16681     16679     16682     16685
     16682     16685     16688     16689     16682     16685     16688     16690
     16682     16685     16688     16691     16683     16682     16685     16686
     16683     16682     16685     16687     16683     16682     16685     16688
     16684     16682     16685     16686     16684     16682     16685     16687
     16684     16682     16685     16688     16685     16688     16691     16692
     16685     16688     16691     16693     16685     16688     16691     16694
     16686     16685     16688     16689     16686     16685     16688     16690
     16686     16685     16688     16691     16687     16685     16688     16689
     16687     16685     16688     16690     16687     16685     16688     16691
     16688     16691     16694     16695     16688     16691     16694     16696
     16688     16691     16694     16697     16689     16688     16691     16692
     16689     16688     16691     16693     16689     16688     16691     16694
     16690     16688     16691     16692     16690     16688     16691     16693
     16690     16688     16691     16694     16691     16694     16697     16698
     16691     16694     16697     16699     16691     16694     16697     16700
     16692     16691     16694     16695     16692     16691     16694     16696
     16692     16691     16694     16697     16693     16691     16694     16695
     16693     16691     16694     16696     16693     16691     16694     16697
     16695     16694     16697     16698     16695     16694     16697     16699
     16695     16694     16697     16700     16696     16694     16697     16698
     16696     16694     16697     16699     16696     16694     16697     16700
     16701     16714     16717     16718     16701     16714     16717     16719
     16701     16714     16717     16724     16702     16701     16706     16707
     16702     16701     16706     16708     16702     16701     16706     16709
     16702     16701     16710     16711     16702     16701     16710     16712
     16702     16701     16710     16713     16702     16701     16714     16715
     16702     16701     16714     16716     16702     16701     16714     16717
     16703     16702     16701     16706     16703     16702     16701     16710
     16703     16702     16701     16714     16704     16702     16701     16706
     16704     16702     16701     16710     16704     16702     16701     16714
     16705     16702     16701     16706     16705     16702     16701     16710
     16705     16702     16701     16714     16706     16701     16710     16711
     16706     16701     16710     16712     16706     16701     16710     16713
     16706     16701     16714     16715     16706     16701     16714     16716
     16706     16701     16714     16717     16707     16706     16701     16710
     16707     16706     16701     16714     16708     16706     16701     16710
     16708     16706     16701     16714     16709     16706     16701     16710
     16709     16706     16701     16714     16710     16701     16714     16715
     16710     16701     16714     16716     16710     16701     16714     16717
     16711     16710     16701     16714     16712     16710     16701     16714
     16713     16710     16701     16714     16714     16717     16724     16720
     16715     16714     16717     16718     16715     16714     16717     16719
     16715     16714     16717     16724     16716     16714     16717     16718
     16716     16714     16717     16719     16716     16714     16717     16724
     16717     16724     16720     16721     16717     16724     16720     16722
     16717     16724     16720     16723     16718     16717     16724     16720
     16719     16717     16724     16720     16720     16723     16725     16726
     16720     16723     16725     16727     16720     16723     16725     16730
     16721     16720     16723     16725     16722     16720     16723     16725
     16723     16725     16730     16728     16723     16725     16730     16731
     16723     16725     16730     16732     16724     16720     16723     16725
     16725     16730     16728     16729     16725     16730     16728     16780
     16725     16730     16732     16733     16725     16730     16732     16734
     16725     16730     16732     16736     16726     16725     16730     16728
     16726     16725     16730     16731     16726     16725     16730     16732
     16727     16725     16730     16728     16727     16725     16730     16731
     16727     16725     16730     16732     16728     16730     16732     16733
     16728     16730     16732     16734     16728     16730     16732     16736
     16728     16780     16782     16783     16728     16780     16782     16784
     16728     16780     16782     16785     16729     16728     16730     16731
     16729     16728     16730     16732     16729     16728     16780     16781
     16729     16728     16780     16782     16730     16728     16780     16781
     16730     16728     16780     16782     16730     16732     16734     16735
     16730     16732     16736     16737     16730     16732     16736     16738
     16731     16730     16728     16780     16731     16730     16732     16733
     16731     16730     16732     16734     16731     16730     16732     16736
     16732     16730     16728     16780     16732     16736     16738     16739
     16732     16736     16738     16740     16733     16732     16734     16735
     16733     16732     16736     16737     16733     16732     16736     16738
     16734     16732     16736     16737     16734     16732     16736     16738
     16735     16734     16732     16736     16736     16738     16740     16741
     16736     16738     16740     16742     16736     16738     16740     16743
     16737     16736     16738     16739     16737     16736     16738     16740
     16738     16740     16743     16744     16738     16740     16743     16745
     16738     16740     16743     16746     16739     16738     16740     16741
     16739     16738     16740     16742     16739     16738     16740     16743
     16740     16743     16746     16747     16740     16743     16746     16748
     16740     16743     16746     16749     16741     16740     16743     16744
     16741     16740     16743     16745     16741     16740     16743     16746
     16742     16740     16743     16744     16742     16740     16743     16745
     16742     16740     16743     16746     16743     16746     16749     16750
     16743     16746     16749     16751     16743     16746     16749     16752
     16744     16743     16746     16747     16744     16743     16746     16748
     16744     16743     16746     16749     16745     16743     16746     16747
     16745     16743     16746     16748     16745     16743     16746     16749
     16746     16749     16752     16753     16746     16749     16752     16754
     16746     16749     16752     16755     16747     16746     16749     16750
     16747     16746     16749     16751     16747     16746     16749     16752
     16748     16746     16749     16750     16748     16746     16749     16751
     16748     16746     16749     16752     16749     16752     16755     16756
     16749     16752     16755     16757     16749     16752     16755     16758
     16750     16749     16752     16753     16750     16749     16752     16754
     16750     16749     16752     16755     16751     16749     16752     16753
     16751     16749     16752     16754     16751     16749     16752     16755
     16752     16755     16758     16759     16752     16755     16758     16760
     16752     16755     16758     16761     16753     16752     16755     16756
     16753     16752     16755     16757     16753     16752     16755     16758
     16754     16752     16755     16756     16754     16752     16755     16757
     16754     16752     16755     16758     16755     16758     16761     16762
     16755     16758     16761     16763     16755     16758     16761     16764
     16756     16755     16758     16759     16756     16755     16758     16760
     16756     16755     16758     16761     16757     16755     16758     16759
     16757     16755     16758     16760     16757     16755     16758     16761
     16758     16761     16764     16765     16758     16761     16764     16766
     16758     16761     16764     16767     16759     16758     16761     16762
     16759     16758     16761     16763     16759     16758     16761     16764
     16760     16758     16761     16762     16760     16758     16761     16763
     16760     16758     16761     16764     16761     16764     16767     16768
     16761     16764     16767     16769     16761     16764     16767     16770
     16762     16761     16764     16765     16762     16761     16764     16766
     16762     16761     16764     16767     16763     16761     16764     16765
     16763     16761     16764     16766     16763     16761     16764     16767
     16764     16767     16770     16771     16764     16767     16770     16772
     16764     16767     16770     16773     16765     16764     16767     16768
     16765     16764     16767     16769     16765     16764     16767     16770
     16766     16764     16767     16768     16766     16764     16767     16769
     16766     16764     16767     16770     16767     16770     16773     16774
     16767     16770     16773     16775     16767     16770     16773     16776
     16768     16767     16770     16771     16768     16767     16770     16772
     16768     16767     16770     16773     16769     16767     16770     16771
     16769     16767     16770     16772     16769     16767     16770     16773
     16770     16773     16776     16777     16770     16773     16776     16778
     16770     16773     16776     16779     16771     16770     16773     16774
     16771     16770     16773     16775     16771     16770     16773     16776
     16772     16770     16773     16774     16772     16770     16773     16775
     16772     16770     16773     16776     16774     16773     16776     16777
     16774     16773     16776     16778     16774     16773     16776     16779
     16775     16773     16776     16777     16775     16773     16776     16778
     16775     16773     16776     16779     16780     16782     16785     16786
     16780     16782     16785     16787     16780     16782     16785     16788
     16781     16780     16782     16783     16781     16780     16782     16784
     16781     16780     16782     16785     16782     16785     16788     16789
     16782     16785     16788     16790     16782     16785     16788     16791
     16783     16782     16785     16786     16783     16782     16785     16787
     16783     16782     16785     16788     16784     16782     16785     16786
     16784     16782     16785     16787     16784     16782     16785     16788
     16785     16788     16791     16792     16785     16788     16791     16793
     16785     16788     16791     16794     16786     16785     16788     16789
     16786     16785     16788     16790     16786     16785     16788     16791
     16787     16785     16788     16789     16787     16785     16788     16790
     16787     16785     16788     16791     16788     16791     16794     16795
     16788     16791     16794     16796     16788     16791     16794     16797
     16789     16788     16791     16792     16789     16788     16791     16793
     16789     16788     16791     16794     16790     16788     16791     16792
     16790     16788     16791     16793     16790     16788     16791     16794
     16791     16794     16797     16798     16791     16794     16797     16799
     16791     16794     16797     16800     16792     16791     16794     16795
     16792     16791     16794     16796     16792     16791     16794     16797
     16793     16791     16794     16795     16793     16791     16794     16796
     16793     16791     16794     16797     16794     16797     16800     16801
     16794     16797     16800     16802     16794     16797     16800     16803
     16795     16794     16797     16798     16795     16794     16797     16799
     16795     16794     16797     16800     16796     16794     16797     16798
     16796     16794     16797     16799     16796     16794     16797     16800
     16797     16800     16803     16804     16797     16800     16803     16805
     16798     16797     16800     16801     16798     16797     16800     16802
     16798     16797     16800     16803     16799     16797     16800     16801
     16799     16797     16800     16802     16799     16797     16800     16803
     16800     16803     16805     16806     16800     16803     16805     16807
     16801     16800     16803     16804     16801     16800     16803     16805
     16802     16800     16803     16804     16802     16800     16803     16805
     16803     16805     16807     16808     16803     16805     16807     16809
     16803     16805     16807     16810     16804     16803     16805     16806
     16804     16803     16805     16807     16805     16807     16810     16811
     16805     16807     16810     16812     16805     16807     16810     16813
     16806     16805     16807     16808     16806     16805     16807     16809
     16806     16805     16807     16810     16807     16810     16813     16814
     16807     16810     16813     16815     16807     16810     16813     16816
     16808     16807     16810     16811     16808     16807     16810     16812
     16808     16807     16810     16813     16809     16807     16810     16811
     16809     16807     16810     16812     16809     16807     16810     16813
     16810     16813     16816     16817     16810     16813     16816     16818
     16810     16813     16816     16819     16811     16810     16813     16814
     16811     16810     16813     16815     16811     16810     16813     16816
     16812     16810     16813     16814     16812     16810     16813     16815
     16812     16810     16813     16816     16813     16816     16819     16820
     16813     16816     16819     16821     16813     16816     16819     16822
     16814     16813     16816     16817     16814     16813     16816     16818
     16814     16813     16816     16819     16815     16813     16816     16817
     16815     16813     16816     16818     16815     16813     16816     16819
     16816     16819     16822     16823     16816     16819     16822     16824
     16816     16819     16822     16825     16817     16816     16819     16820
     16817     16816     16819     16821     16817     16816     16819     16822
     16818     16816     16819     16820     16818     16816     16819     16821
     16818     16816     16819     16822     16819     16822     16825     16826
     16819     16822     16825     16827     16819     16822     16825     16828
     16820     16819     16822     16823     16820     16819     16822     16824
     16820     16819     16822     16825     16821     16819     16822     16823
     16821     16819     16822     16824     16821     16819     16822     16825
     16822     16825     16828     16829     16822     16825     16828     16830
     16822     16825     16828     16831     16823     16822     16825     16826
     16823     16822     16825     16827     16823     16822     16825     16828
     16824     16822     16825     16826     16824     16822     16825     16827
     16824     16822     16825     16828     16826     16825     16828     16829
     16826     16825     16828     16830     16826     16825     16828     16831
     16827     16825     16828     16829     16827     16825     16828     16830
     16827     16825     16828     16831     16832     16836     16839     16840
     16832     16836     16839     16870     16832     16878     16875     16870
     16832     16878     16875     16876     16832     16878     16875     16877
     16833     16832     16834     16835     16833     16832     16836     16837
     16833     16832     16836     16838     16833     16832     16836     16839
     16833     16832     16878     16875     16833     16832     16878     16879
     16833     16832     16878     16880     16834     16832     16836     16837
     16834     16832     16836     16838     16834     16832     16836     16839
     16834     16832     16878     16875     16834     16832     16878     16879
     16834     16832     16878     16880     16835     16834     16832     16836
     16835     16834     16832     16878     16836     16832     16878     16875
     16836     16832     16878     16879     16836     16832     16878     16880
     16836     16839     16840     16841     16836     16839     16840     16842
     16836     16839     16870     16868     16836     16839     16870     16871
     16836     16839     16870     16875     16837     16836     16832     16878
     16837     16836     16839     16840     16837     16836     16839     16870
     16838     16836     16832     16878     16838     16836     16839     16840
     16838     16836     16839     16870     16839     16836     16832     16878
     16839     16840     16842     16843     16839     16840     16842     16844
     16839     16840     16842     16845     16839     16870     16868     16845
     16839     16870     16868     16865     16839     16870     16868     16869
     16839     16870     16871     16872     16839     16870     16871     16873
     16839     16870     16871     16874     16839     16870     16875     16876
     16839     16870     16875     16877     16839     16870     16875     16878
     16840     16839     16870     16868     16840     16839     16870     16871
     16840     16839     16870     16875     16840     16842     16845     16846
     16840     16842     16845     16847     16840     16842     16845     16868
     16841     16840     16839     16870     16841     16840     16842     16843
     16841     16840     16842     16844     16841     16840     16842     16845
     16842     16840     16839     16870     16842     16845     16847     16848
     16842     16845     16847     16849     16842     16845     16847     16857
     16842     16845     16868     16865     16842     16845     16868     16869
     16842     16845     16868     16870     16843     16842     16845     16846
     16843     16842     16845     16847     16843     16842     16845     16868
     16844     16842     16845     16846     16844     16842     16845     16847
     16844     16842     16845     16868     16845     16847     16849     16850
     16845     16847     16849     16851     16845     16847     16849     16852
     16845     16847     16857     16855     16845     16847     16857     16858
     16845     16847     16857     16862     16845     16868     16865     16862
     16845     16868     16865     16866     16845     16868     16865     16867
     16845     16868     16870     16871     16845     16868     16870     16875
     16846     16845     16847     16848     16846     16845     16847     16849
     16846     16845     16847     16857     16846     16845     16868     16865
     16846     16845     16868     16869     16846     16845     16868     16870
     16847     16845     16868     16865     16847     16845     16868     16869
     16847     16845     16868     16870     16847     16849     16852     16853
     16847     16849     16852     16854     16847     16849     16852     16855
     16847     16857     16855     16852     16847     16857     16855     16856
     16847     16857     16855     16881     16847     16857     16858     16859
     16847     16857     16858     16860     16847     16857     16858     16861
     16847     16857     16862     16863     16847     16857     16862     16864
     16847     16857     16862     16865     16848     16847     16845     16868
     16848     16847     16849     16850     16848     16847     16849     16851
     16848     16847     16849     16852     16848     16847     16857     16855
     16848     16847     16857     16858     16848     16847     16857     16862
     16849     16847     16845     16868     16849     16847     16857     16855
     16849     16847     16857     16858     16849     16847     16857     16862
     16849     16852     16855     16856     16849     16852     16855     16857
     16849     16852     16855     16881     16850     16849     16847     16857
     16850     16849     16852     16853     16850     16849     16852     16854
     16850     16849     16852     16855     16851     16849     16847     16857
     16851     16849     16852     16853     16851     16849     16852     16854
     16851     16849     16852     16855     16852     16849     16847     16857
     16852     16855     16857     16858     16852     16855     16857     16862
     16852     16855     16881     16882     16852     16855     16881     16883
     16852     16855     16881     16887     16853     16852     16855     16856
     16853     16852     16855     16857     16853     16852     16855     16881
     16854     16852     16855     16856     16854     16852     16855     16857
     16854     16852     16855     16881     16855     16857     16858     16859
     16855     16857     16858     16860     16855     16857     16858     16861
     16855     16857     16862     16863     16855     16857     16862     16864
     16855     16857     16862     16865     16855     16881     16883     16884
     16855     16881     16883     16885     16855     16881     16883     16886
     16855     16881     16887     16888     16855     16881     16887     16889
     16855     16881     16887     16890     16856     16855     16857     16858
     16856     16855     16857     16862     16856     16855     16881     16882
     16856     16855     16881     16883     16856     16855     16881     16887
     16857     16847     16845     16868     16857     16855     16881     16882
     16857     16855     16881     16883     16857     16855     16881     16887
     16857     16862     16865     16866     16857     16862     16865     16867
     16857     16862     16865     16868     16858     16857     16855     16881
     16858     16857     16862     16863     16858     16857     16862     16864
     16858     16857     16862     16865     16859     16858     16857     16862
     16860     16858     16857     16862     16861     16858     16857     16862
     16862     16857     16855     16881     16862     16865     16868     16869
     16862     16865     16868     16870     16863     16862     16865     16866
     16863     16862     16865     16867     16863     16862     16865     16868
     16864     16862     16865     16866     16864     16862     16865     16867
     16864     16862     16865     16868     16865     16868     16870     16871
     16865     16868     16870     16875     16866     16865     16868     16869
     16866     16865     16868     16870     16867     16865     16868     16869
     16867     16865     16868     16870     16868     16870     16871     16872
     16868     16870     16871     16873     16868     16870     16871     16874
     16868     16870     16875     16876     16868     16870     16875     16877
     16868     16870     16875     16878     16869     16868     16870     16871
     16869     16868     16870     16875     16870     16875     16878     16879
     16870     16875     16878     16880     16871     16870     16875     16876
     16871     16870     16875     16877     16871     16870     16875     16878
     16872     16871     16870     16875     16873     16871     16870     16875
     16874     16871     16870     16875     16876     16875     16878     16879
     16876     16875     16878     16880     16877     16875     16878     16879
     16877     16875     16878     16880     16881     16887     16890     16891
     16881     16887     16890     16892     16881     16887     16890     16893
     16882     16881     16883     16884     16882     16881     16883     16885
     16882     16881     16883     16886     16882     16881     16887     16888
     16882     16881     16887     16889     16882     16881     16887     16890
     16883     16881     16887     16888     16883     16881     16887     16889
     16883     16881     16887     16890     16884     16883     16881     16887
     16885     16883     16881     16887     16886     16883     16881     16887
     16887     16890     16893     16894     16887     16890     16893     16895
     16887     16890     16893     16896     16888     16887     16890     16891
     16888     16887     16890     16892     16888     16887     16890     16893
     16889     16887     16890     16891     16889     16887     16890     16892
     16889     16887     16890     16893     16890     16893     16896     16897
     16890     16893     16896     16898     16890     16893     16896     16902
     16891     16890     16893     16894     16891     16890     16893     16895
     16891     16890     16893     16896     16892     16890     16893     16894
     16892     16890     16893     16895     16892     16890     16893     16896
     16893     16896     16898     16899     16893     16896     16898     16900
     16893     16896     16898     16901     16893     16896     16902     16903
     16893     16896     16902     16904     16893     16896     16902     16905
     16894     16893     16896     16897     16894     16893     16896     16898
     16894     16893     16896     16902     16895     16893     16896     16897
     16895     16893     16896     16898     16895     16893     16896     16902
     16897     16896     16898     16899     16897     16896     16898     16900
     16897     16896     16898     16901     16897     16896     16902     16903
     16897     16896     16902     16904     16897     16896     16902     16905
     16898     16896     16902     16903     16898     16896     16902     16904
     16898     16896     16902     16905     16899     16898     16896     16902
     16900     16898     16896     16902     16901     16898     16896     16902
     16906     16919     16922     16923     16906     16919     16922     16924
     16906     16919     16922     16929     16907     16906     16911     16912
     16907     16906     16911     16913     16907     16906     16911     16914
     16907     16906     16915     16916     16907     16906     16915     16917
     16907     16906     16915     16918     16907     16906     16919     16920
     16907     16906     16919     16921     16907     16906     16919     16922
     16908     16907     16906     16911     16908     16907     16906     16915
     16908     16907     16906     16919     16909     16907     16906     16911
     16909     16907     16906     16915     16909     16907     16906     16919
     16910     16907     16906     16911     16910     16907     16906     16915
     16910     16907     16906     16919     16911     16906     16915     16916
     16911     16906     16915     16917     16911     16906     16915     16918
     16911     16906     16919     16920     16911     16906     16919     16921
     16911     16906     16919     16922     16912     16911     16906     16915
     16912     16911     16906     16919     16913     16911     16906     16915
     16913     16911     16906     16919     16914     16911     16906     16915
     16914     16911     16906     16919     16915     16906     16919     16920
     16915     16906     16919     16921     16915     16906     16919     16922
     16916     16915     16906     16919     16917     16915     16906     16919
     16918     16915     16906     16919     16919     16922     16929     16925
     16920     16919     16922     16923     16920     16919     16922     16924
     16920     16919     16922     16929     16921     16919     16922     16923
     16921     16919     16922     16924     16921     16919     16922     16929
     16922     16929     16925     16926     16922     16929     16925     16927
     16922     16929     16925     16928     16923     16922     16929     16925
     16924     16922     16929     16925     16925     16928     16930     16931
     16925     16928     16930     16932     16925     16928     16930     16935
     16926     16925     16928     16930     16927     16925     16928     16930
     16928     16930     16935     16933     16928     16930     16935     16936
     16928     16930     16935     16937     16929     16925     16928     16930
     16930     16935     16933     16934     16930     16935     16933     16985
     16930     16935     16937     16938     16930     16935     16937     16939
     16930     16935     16937     16941     16931     16930     16935     16933
     16931     16930     16935     16936     16931     16930     16935     16937
     16932     16930     16935     16933     16932     16930     16935     16936
     16932     16930     16935     16937     16933     16935     16937     16938
     16933     16935     16937     16939     16933     16935     16937     16941
     16933     16985     16987     16988     16933     16985     16987     16989
     16933     16985     16987     16990     16934     16933     16935     16936
     16934     16933     16935     16937     16934     16933     16985     16986
     16934     16933     16985     16987     16935     16933     16985     16986
     16935     16933     16985     16987     16935     16937     16939     16940
     16935     16937     16941     16942     16935     16937     16941     16943
     16936     16935     16933     16985     16936     16935     16937     16938
     16936     16935     16937     16939     16936     16935     16937     16941
     16937     16935     16933     16985     16937     16941     16943     16944
     16937     16941     16943     16945     16938     16937     16939     16940
     16938     16937     16941     16942     16938     16937     16941     16943
     16939     16937     16941     16942     16939     16937     16941     16943
     16940     16939     16937     16941     16941     16943     16945     16946
     16941     16943     16945     16947     16941     16943     16945     16948
     16942     16941     16943     16944     16942     16941     16943     16945
     16943     16945     16948     16949     16943     16945     16948     16950
     16943     16945     16948     16951     16944     16943     16945     16946
     16944     16943     16945     16947     16944     16943     16945     16948
     16945     16948     16951     16952     16945     16948     16951     16953
     16945     16948     16951     16954     16946     16945     16948     16949
     16946     16945     16948     16950     16946     16945     16948     16951
     16947     16945     16948     16949     16947     16945     16948     16950
     16947     16945     16948     16951     16948     16951     16954     16955
     16948     16951     16954     16956     16948     16951     16954     16957
     16949     16948     16951     16952     16949     16948     16951     16953
     16949     16948     16951     16954     16950     16948     16951     16952
     16950     16948     16951     16953     16950     16948     16951     16954
     16951     16954     16957     16958     16951     16954     16957     16959
     16951     16954     16957     16960     16952     16951     16954     16955
     16952     16951     16954     16956     16952     16951     16954     16957
     16953     16951     16954     16955     16953     16951     16954     16956
     16953     16951     16954     16957     16954     16957     16960     16961
     16954     16957     16960     16962     16954     16957     16960     16963
     16955     16954     16957     16958     16955     16954     16957     16959
     16955     16954     16957     16960     16956     16954     16957     16958
     16956     16954     16957     16959     16956     16954     16957     16960
     16957     16960     16963     16964     16957     16960     16963     16965
     16957     16960     16963     16966     16958     16957     16960     16961
     16958     16957     16960     16962     16958     16957     16960     16963
     16959     16957     16960     16961     16959     16957     16960     16962
     16959     16957     16960     16963     16960     16963     16966     16967
     16960     16963     16966     16968     16960     16963     16966     16969
     16961     16960     16963     16964     16961     16960     16963     16965
     16961     16960     16963     16966     16962     16960     16963     16964
     16962     16960     16963     16965     16962     16960     16963     16966
     16963     16966     16969     16970     16963     16966     16969     16971
     16963     16966     16969     16972     16964     16963     16966     16967
     16964     16963     16966     16968     16964     16963     16966     16969
     16965     16963     16966     16967     16965     16963     16966     16968
     16965     16963     16966     16969     16966     16969     16972     16973
     16966     16969     16972     16974     16966     16969     16972     16975
     16967     16966     16969     16970     16967     16966     16969     16971
     16967     16966     16969     16972     16968     16966     16969     16970
     16968     16966     16969     16971     16968     16966     16969     16972
     16969     16972     16975     16976     16969     16972     16975     16977
     16969     16972     16975     16978     16970     16969     16972     16973
     16970     16969     16972     16974     16970     16969     16972     16975
     16971     16969     16972     16973     16971     16969     16972     16974
     16971     16969     16972     16975     16972     16975     16978     16979
     16972     16975     16978     16980     16972     16975     16978     16981
     16973     16972     16975     16976     16973     16972     16975     16977
     16973     16972     16975     16978     16974     16972     16975     16976
     16974     16972     16975     16977     16974     16972     16975     16978
     16975     16978     16981     16982     16975     16978     16981     16983
     16975     16978     16981     16984     16976     16975     16978     16979
     16976     16975     16978     16980     16976     16975     16978     16981
     16977     16975     16978     16979     16977     16975     16978     16980
     16977     16975     16978     16981     16979     16978     16981     16982
     16979     16978     16981     16983     16979     16978     16981     16984
     16980     16978     16981     16982     16980     16978     16981     16983
     16980     16978     16981     16984     16985     16987     16990     16991
     16985     16987     16990     16992     16985     16987     16990     16993
     16986     16985     16987     16988     16986     16985     16987     16989
     16986     16985     16987     16990     16987     16990     16993     16994
     16987     16990     16993     16995     16987     16990     16993     16996
     16988     16987     16990     16991     16988     16987     16990     16992
     16988     16987     16990     16993     16989     16987     16990     16991
     16989     16987     16990     16992     16989     16987     16990     16993
     16990     16993     16996     16997     16990     16993     16996     16998
     16990     16993     16996     16999     16991     16990     16993     16994
     16991     16990     16993     16995     16991     16990     16993     16996
     16992     16990     16993     16994     16992     16990     16993     16995
     16992     16990     16993     16996     16993     16996     16999     17000
     16993     16996     16999     17001     16993     16996     16999     17002
     16994     16993     16996     16997     16994     16993     16996     16998
     16994     16993     16996     16999     16995     16993     16996     16997
     16995     16993     16996     16998     16995     16993     16996     16999
     16996     16999     17002     17003     16996     16999     17002     17004
     16996     16999     17002     17005     16997     16996     16999     17000
     16997     16996     16999     17001     16997     16996     16999     17002
     16998     16996     16999     17000     16998     16996     16999     17001
     16998     16996     16999     17002     16999     17002     17005     17006
     16999     17002     17005     17007     16999     17002     17005     17008
     17000     16999     17002     17003     17000     16999     17002     17004
     17000     16999     17002     17005     17001     16999     17002     17003
     17001     16999     17002     17004     17001     16999     17002     17005
     17002     17005     17008     17009     17002     17005     17008     17010
     17003     17002     17005     17006     17003     17002     17005     17007
     17003     17002     17005     17008     17004     17002     17005     17006
     17004     17002     17005     17007     17004     17002     17005     17008
     17005     17008     17010     17011     17005     17008     17010     17012
     17006     17005     17008     17009     17006     17005     17008     17010
     17007     17005     17008     17009     17007     17005     17008     17010
     17008     17010     17012     17013     17008     17010     17012     17014
     17008     17010     17012     17015     17009     17008     17010     17011
     17009     17008     17010     17012     17010     17012     17015     17016
     17010     17012     17015     17017     17010     17012     17015     17018
     17011     17010     17012     17013     17011     17010     17012     17014
     17011     17010     17012     17015     17012     17015     17018     17019
     17012     17015     17018     17020     17012     17015     17018     17021
     17013     17012     17015     17016     17013     17012     17015     17017
     17013     17012     17015     17018     17014     17012     17015     17016
     17014     17012     17015     17017     17014     17012     17015     17018
     17015     17018     17021     17022     17015     17018     17021     17023
     17015     17018     17021     17024     17016     17015     17018     17019
     17016     17015     17018     17020     17016     17015     17018     17021
     17017     17015     17018     17019     17017     17015     17018     17020
     17017     17015     17018     17021     17018     17021     17024     17025
     17018     17021     17024     17026     17018     17021     17024     17027
     17019     17018     17021     17022     17019     17018     17021     17023
     17019     17018     17021     17024     17020     17018     17021     17022
     17020     17018     17021     17023     17020     17018     17021     17024
     17021     17024     17027     17028     17021     17024     17027     17029
     17021     17024     17027     17030     17022     17021     17024     17025
     17022     17021     17024     17026     17022     17021     17024     17027
     17023     17021     17024     17025     17023     17021     17024     17026
     17023     17021     17024     17027     17024     17027     17030     17031
     17024     17027     17030     17032     17024     17027     17030     17033
     17025     17024     17027     17028     17025     17024     17027     17029
     17025     17024     17027     17030     17026     17024     17027     17028
     17026     17024     17027     17029     17026     17024     17027     17030
     17027     17030     17033     17034     17027     17030     17033     17035
     17027     17030     17033     17036     17028     17027     17030     17031
     17028     17027     17030     17032     17028     17027     17030     17033
     17029     17027     17030     17031     17029     17027     17030     17032
     17029     17027     17030     17033     17031     17030     17033     17034
     17031     17030     17033     17035     17031     17030     17033     17036
     17032     17030     17033     17034     17032     17030     17033     17035
     17032     17030     17033     17036     17037     17041     17044     17045
     17037     17041     17044     17046     17037     17041     17044     17050
     17038     17037     17041     17042     17038     17037     17041     17043
     17038     17037     17041     17044     17039     17037     17041     17042
     17039     17037     17041     17043     17039     17037     17041     17044
     17040     17037     17041     17042     17040     17037     17041     17043
     17040     17037     17041     17044     17041     17044     17050     17047
     17042     17041     17044     17045     17042     17041     17044     17046
     17042     17041     17044     17050     17043     17041     17044     17045
     17043     17041     17044     17046     17043     17041     17044     17050
     17044     17050     17047     17048     17044     17050     17047     17049
     17044     17050     17047     17051     17045     17044     17050     17047
     17046     17044     17050     17047     17047     17051     17052     17053
     17047     17051     17052     17054     17047     17051     17052     17055
     17048     17047     17051     17052     17049     17047     17051     17052
     17050     17047     17051     17052     17051     17052     17055     17056
     17051     17052     17055     17057     17051     17052     17055     17063
     17052     17055     17057     17058     17052     17055     17063     17064
     17052     17055     17063     17065     17052     17055     17063     17066
     17053     17052     17055     17056     17053     17052     17055     17057
     17053     17052     17055     17063     17054     17052     17055     17056
     17054     17052     17055     17057     17054     17052     17055     17063
     17055     17057     17058     17059     17055     17057     17058     17060
     17055     17063     17066     17067     17056     17055     17057     17058
     17056     17055     17063     17064     17056     17055     17063     17065
     17056     17055     17063     17066     17057     17055     17063     17064
     17057     17055     17063     17065     17057     17055     17063     17066
     17057     17058     17060     17061     17057     17058     17060     17062
     17057     17058     17060     17072     17058     17057     17055     17063
     17058     17060     17072     17073     17058     17060     17072     17074
     17058     17060     17072     17075     17059     17058     17060     17061
     17059     17058     17060     17062     17059     17058     17060     17072
     17060     17072     17075     17076     17060     17072     17075     17077
     17060     17072     17075     17078     17061     17060     17072     17073
     17061     17060     17072     17074     17061     17060     17072     17075
     17062     17060     17072     17073     17062     17060     17072     17074
     17062     17060     17072     17075     17063     17066     17067     17068
     17063     17066     17067     17069     17064     17063     17066     17067
     17065     17063     17066     17067     17066     17067     17069     17070
     17066     17067     17069     17071     17066     17067     17069     17119
     17067     17069     17119     17120     17067     17069     17119     17121
     17067     17069     17119     17122     17068     17067     17069     17070
     17068     17067     17069     17071     17068     17067     17069     17119
     17069     17119     17122     17123     17069     17119     17122     17124
     17069     17119     17122     17125     17070     17069     17119     17120
     17070     17069     17119     17121     17070     17069     17119     17122
     17071     17069     17119     17120     17071     17069     17119     17121
     17071     17069     17119     17122     17072     17075     17078     17079
     17072     17075     17078     17080     17073     17072     17075     17076
     17073     17072     17075     17077     17073     17072     17075     17078
     17074     17072     17075     17076     17074     17072     17075     17077
     17074     17072     17075     17078     17075     17078     17080     17081
     17075     17078     17080     17082     17076     17075     17078     17079
     17076     17075     17078     17080     17077     17075     17078     17079
     17077     17075     17078     17080     17078     17080     17082     17083
     17078     17080     17082     17084     17078     17080     17082     17085
     17079     17078     17080     17081     17079     17078     17080     17082
     17080     17082     17085     17086     17080     17082     17085     17087
     17081     17080     17082     17083     17081     17080     17082     17084
     17081     17080     17082     17085     17082     17085     17087     17088
     17082     17085     17087     17089     17083     17082     17085     17086
     17083     17082     17085     17087     17084     17082     17085     17086
     17084     17082     17085     17087     17085     17087     17089     17090
     17085     17087     17089     17091     17085     17087     17089     17092
     17086     17085     17087     17088     17086     17085     17087     17089
     17087     17089     17092     17093     17087     17089     17092     17094
     17088     17087     17089     17090     17088     17087     17089     17091
     17088     17087     17089     17092     17089     17092     17094     17095
     17089     17092     17094     17096     17090     17089     17092     17093
     17090     17089     17092     17094     17091     17089     17092     17093
     17091     17089     17092     17094     17092     17094     17096     17097
     17092     17094     17096     17098     17092     17094     17096     17099
     17093     17092     17094     17095     17093     17092     17094     17096
     17094     17096     17099     17100     17094     17096     17099     17101
     17095     17094     17096     17097     17095     17094     17096     17098
     17095     17094     17096     17099     17096     17099     17101     17102
     17096     17099     17101     17103     17097     17096     17099     17100
     17097     17096     17099     17101     17098     17096     17099     17100
     17098     17096     17099     17101     17099     17101     17103     17104
     17099     17101     17103     17105     17099     17101     17103     17106
     17100     17099     17101     17102     17100     17099     17101     17103
     17101     17103     17106     17107     17101     17103     17106     17108
     17101     17103     17106     17109     17102     17101     17103     17104
     17102     17101     17103     17105     17102     17101     17103     17106
     17103     17106     17109     17110     17103     17106     17109     17111
     17103     17106     17109     17112     17104     17103     17106     17107
     17104     17103     17106     17108     17104     17103     17106     17109
     17105     17103     17106     17107     17105     17103     17106     17108
     17105     17103     17106     17109     17106     17109     17112     17113
     17106     17109     17112     17114     17106     17109     17112     17115
     17107     17106     17109     17110     17107     17106     17109     17111
     17107     17106     17109     17112     17108     17106     17109     17110
     17108     17106     17109     17111     17108     17106     17109     17112
     17109     17112     17115     17116     17109     17112     17115     17117
     17109     17112     17115     17118     17110     17109     17112     17113
     17110     17109     17112     17114     17110     17109     17112     17115
     17111     17109     17112     17113     17111     17109     17112     17114
     17111     17109     17112     17115     17113     17112     17115     17116
     17113     17112     17115     17117     17113     17112     17115     17118
     17114     17112     17115     17116     17114     17112     17115     17117
     17114     17112     17115     17118     17119     17122     17125     17126
     17119     17122     17125     17127     17119     17122     17125     17128
     17120     17119     17122     17123     17120     17119     17122     17124
     17120     17119     17122     17125     17121     17119     17122     17123
     17121     17119     17122     17124     17121     17119     17122     17125
     17122     17125     17128     17129     17122     17125     17128     17130
     17122     17125     17128     17131     17123     17122     17125     17126
     17123     17122     17125     17127     17123     17122     17125     17128
     17124     17122     17125     17126     17124     17122     17125     17127
     17124     17122     17125     17128     17125     17128     17131     17132
     17125     17128     17131     17133     17125     17128     17131     17134
     17126     17125     17128     17129     17126     17125     17128     17130
     17126     17125     17128     17131     17127     17125     17128     17129
     17127     17125     17128     17130     17127     17125     17128     17131
     17128     17131     17134     17135     17128     17131     17134     17136
     17128     17131     17134     17137     17129     17128     17131     17132
     17129     17128     17131     17133     17129     17128     17131     17134
     17130     17128     17131     17132     17130     17128     17131     17133
     17130     17128     17131     17134     17131     17134     17137     17138
     17131     17134     17137     17139     17131     17134     17137     17140
     17132     17131     17134     17135     17132     17131     17134     17136
     17132     17131     17134     17137     17133     17131     17134     17135
     17133     17131     17134     17136     17133     17131     17134     17137
     17134     17137     17140     17141     17134     17137     17140     17142
     17134     17137     17140     17143     17135     17134     17137     17138
     17135     17134     17137     17139     17135     17134     17137     17140
     17136     17134     17137     17138     17136     17134     17137     17139
     17136     17134     17137     17140     17137     17140     17143     17144
     17137     17140     17143     17145     17137     17140     17143     17146
     17138     17137     17140     17141     17138     17137     17140     17142
     17138     17137     17140     17143     17139     17137     17140     17141
     17139     17137     17140     17142     17139     17137     17140     17143
     17140     17143     17146     17147     17140     17143     17146     17148
     17140     17143     17146     17149     17141     17140     17143     17144
     17141     17140     17143     17145     17141     17140     17143     17146
     17142     17140     17143     17144     17142     17140     17143     17145
     17142     17140     17143     17146     17143     17146     17149     17150
     17143     17146     17149     17151     17143     17146     17149     17152
     17144     17143     17146     17147     17144     17143     17146     17148
     17144     17143     17146     17149     17145     17143     17146     17147
     17145     17143     17146     17148     17145     17143     17146     17149
     17146     17149     17152     17153     17146     17149     17152     17154
     17146     17149     17152     17155     17147     17146     17149     17150
     17147     17146     17149     17151     17147     17146     17149     17152
     17148     17146     17149     17150     17148     17146     17149     17151
     17148     17146     17149     17152     17149     17152     17155     17156
     17149     17152     17155     17157     17149     17152     17155     17158
     17150     17149     17152     17153     17150     17149     17152     17154
     17150     17149     17152     17155     17151     17149     17152     17153
     17151     17149     17152     17154     17151     17149     17152     17155
     17152     17155     17158     17159     17152     17155     17158     17160
     17152     17155     17158     17161     17153     17152     17155     17156
     17153     17152     17155     17157     17153     17152     17155     17158
     17154     17152     17155     17156     17154     17152     17155     17157
     17154     17152     17155     17158     17155     17158     17161     17162
     17155     17158     17161     17163     17155     17158     17161     17164
     17156     17155     17158     17159     17156     17155     17158     17160
     17156     17155     17158     17161     17157     17155     17158     17159
     17157     17155     17158     17160     17157     17155     17158     17161
     17158     17161     17164     17165     17158     17161     17164     17166
     17158     17161     17164     17167     17159     17158     17161     17162
     17159     17158     17161     17163     17159     17158     17161     17164
     17160     17158     17161     17162     17160     17158     17161     17163
     17160     17158     17161     17164     17162     17161     17164     17165
     17162     17161     17164     17166     17162     17161     17164     17167
     17163     17161     17164     17165     17163     17161     17164     17166
     17163     17161     17164     17167     17168     17181     17184     17185
     17168     17181     17184     17186     17168     17181     17184     17191
     17169     17168     17173     17174     17169     17168     17173     17175
     17169     17168     17173     17176     17169     17168     17177     17178
     17169     17168     17177     17179     17169     17168     17177     17180
     17169     17168     17181     17182     17169     17168     17181     17183
     17169     17168     17181     17184     17170     17169     17168     17173
     17170     17169     17168     17177     17170     17169     17168     17181
     17171     17169     17168     17173     17171     17169     17168     17177
     17171     17169     17168     17181     17172     17169     17168     17173
     17172     17169     17168     17177     17172     17169     17168     17181
     17173     17168     17177     17178     17173     17168     17177     17179
     17173     17168     17177     17180     17173     17168     17181     17182
     17173     17168     17181     17183     17173     17168     17181     17184
     17174     17173     17168     17177     17174     17173     17168     17181
     17175     17173     17168     17177     17175     17173     17168     17181
     17176     17173     17168     17177     17176     17173     17168     17181
     17177     17168     17181     17182     17177     17168     17181     17183
     17177     17168     17181     17184     17178     17177     17168     17181
     17179     17177     17168     17181     17180     17177     17168     17181
     17181     17184     17191     17187     17182     17181     17184     17185
     17182     17181     17184     17186     17182     17181     17184     17191
     17183     17181     17184     17185     17183     17181     17184     17186
     17183     17181     17184     17191     17184     17191     17187     17188
     17184     17191     17187     17189     17184     17191     17187     17190
     17185     17184     17191     17187     17186     17184     17191     17187
     17187     17190     17192     17193     17187     17190     17192     17194
     17187     17190     17192     17197     17188     17187     17190     17192
     17189     17187     17190     17192     17190     17192     17197     17195
     17190     17192     17197     17198     17190     17192     17197     17199
     17191     17187     17190     17192     17192     17197     17195     17196
     17192     17197     17195     17247     17192     17197     17199     17200
     17192     17197     17199     17201     17192     17197     17199     17203
     17193     17192     17197     17195     17193     17192     17197     17198
     17193     17192     17197     17199     17194     17192     17197     17195
     17194     17192     17197     17198     17194     17192     17197     17199
     17195     17197     17199     17200     17195     17197     17199     17201
     17195     17197     17199     17203     17195     17247     17249     17250
     17195     17247     17249     17251     17195     17247     17249     17252
     17196     17195     17197     17198     17196     17195     17197     17199
     17196     17195     17247     17248     17196     17195     17247     17249
     17197     17195     17247     17248     17197     17195     17247     17249
     17197     17199     17201     17202     17197     17199     17203     17204
     17197     17199     17203     17205     17198     17197     17195     17247
     17198     17197     17199     17200     17198     17197     17199     17201
     17198     17197     17199     17203     17199     17197     17195     17247
     17199     17203     17205     17206     17199     17203     17205     17207
     17200     17199     17201     17202     17200     17199     17203     17204
     17200     17199     17203     17205     17201     17199     17203     17204
     17201     17199     17203     17205     17202     17201     17199     17203
     17203     17205     17207     17208     17203     17205     17207     17209
     17203     17205     17207     17210     17204     17203     17205     17206
     17204     17203     17205     17207     17205     17207     17210     17211
     17205     17207     17210     17212     17205     17207     17210     17213
     17206     17205     17207     17208     17206     17205     17207     17209
     17206     17205     17207     17210     17207     17210     17213     17214
     17207     17210     17213     17215     17207     17210     17213     17216
     17208     17207     17210     17211     17208     17207     17210     17212
     17208     17207     17210     17213     17209     17207     17210     17211
     17209     17207     17210     17212     17209     17207     17210     17213
     17210     17213     17216     17217     17210     17213     17216     17218
     17210     17213     17216     17219     17211     17210     17213     17214
     17211     17210     17213     17215     17211     17210     17213     17216
     17212     17210     17213     17214     17212     17210     17213     17215
     17212     17210     17213     17216     17213     17216     17219     17220
     17213     17216     17219     17221     17213     17216     17219     17222
     17214     17213     17216     17217     17214     17213     17216     17218
     17214     17213     17216     17219     17215     17213     17216     17217
     17215     17213     17216     17218     17215     17213     17216     17219
     17216     17219     17222     17223     17216     17219     17222     17224
     17216     17219     17222     17225     17217     17216     17219     17220
     17217     17216     17219     17221     17217     17216     17219     17222
     17218     17216     17219     17220     17218     17216     17219     17221
     17218     17216     17219     17222     17219     17222     17225     17226
     17219     17222     17225     17227     17219     17222     17225     17228
     17220     17219     17222     17223     17220     17219     17222     17224
     17220     17219     17222     17225     17221     17219     17222     17223
     17221     17219     17222     17224     17221     17219     17222     17225
     17222     17225     17228     17229     17222     17225     17228     17230
     17222     17225     17228     17231     17223     17222     17225     17226
     17223     17222     17225     17227     17223     17222     17225     17228
     17224     17222     17225     17226     17224     17222     17225     17227
     17224     17222     17225     17228     17225     17228     17231     17232
     17225     17228     17231     17233     17225     17228     17231     17234
     17226     17225     17228     17229     17226     17225     17228     17230
     17226     17225     17228     17231     17227     17225     17228     17229
     17227     17225     17228     17230     17227     17225     17228     17231
     17228     17231     17234     17235     17228     17231     17234     17236
     17228     17231     17234     17237     17229     17228     17231     17232
     17229     17228     17231     17233     17229     17228     17231     17234
     17230     17228     17231     17232     17230     17228     17231     17233
     17230     17228     17231     17234     17231     17234     17237     17238
     17231     17234     17237     17239     17231     17234     17237     17240
     17232     17231     17234     17235     17232     17231     17234     17236
     17232     17231     17234     17237     17233     17231     17234     17235
     17233     17231     17234     17236     17233     17231     17234     17237
     17234     17237     17240     17241     17234     17237     17240     17242
     17234     17237     17240     17243     17235     17234     17237     17238
     17235     17234     17237     17239     17235     17234     17237     17240
     17236     17234     17237     17238     17236     17234     17237     17239
     17236     17234     17237     17240     17237     17240     17243     17244
     17237     17240     17243     17245     17237     17240     17243     17246
     17238     17237     17240     17241     17238     17237     17240     17242
     17238     17237     17240     17243     17239     17237     17240     17241
     17239     17237     17240     17242     17239     17237     17240     17243
     17241     17240     17243     17244     17241     17240     17243     17245
     17241     17240     17243     17246     17242     17240     17243     17244
     17242     17240     17243     17245     17242     17240     17243     17246
     17247     17249     17252     17253     17247     17249     17252     17254
     17247     17249     17252     17255     17248     17247     17249     17250
     17248     17247     17249     17251     17248     17247     17249     17252
     17249     17252     17255     17256     17249     17252     17255     17257
     17249     17252     17255     17258     17250     17249     17252     17253
     17250     17249     17252     17254     17250     17249     17252     17255
     17251     17249     17252     17253     17251     17249     17252     17254
     17251     17249     17252     17255     17252     17255     17258     17259
     17252     17255     17258     17260     17252     17255     17258     17261
     17253     17252     17255     17256     17253     17252     17255     17257
     17253     17252     17255     17258     17254     17252     17255     17256
     17254     17252     17255     17257     17254     17252     17255     17258
     17255     17258     17261     17262     17255     17258     17261     17263
     17255     17258     17261     17264     17256     17255     17258     17259
     17256     17255     17258     17260     17256     17255     17258     17261
     17257     17255     17258     17259     17257     17255     17258     17260
     17257     17255     17258     17261     17258     17261     17264     17265
     17258     17261     17264     17266     17258     17261     17264     17267
     17259     17258     17261     17262     17259     17258     17261     17263
     17259     17258     17261     17264     17260     17258     17261     17262
     17260     17258     17261     17263     17260     17258     17261     17264
     17261     17264     17267     17268     17261     17264     17267     17269
     17261     17264     17267     17270     17262     17261     17264     17265
     17262     17261     17264     17266     17262     17261     17264     17267
     17263     17261     17264     17265     17263     17261     17264     17266
     17263     17261     17264     17267     17264     17267     17270     17271
     17264     17267     17270     17272     17265     17264     17267     17268
     17265     17264     17267     17269     17265     17264     17267     17270
     17266     17264     17267     17268     17266     17264     17267     17269
     17266     17264     17267     17270     17267     17270     17272     17273
     17267     17270     17272     17274     17268     17267     17270     17271
     17268     17267     17270     17272     17269     17267     17270     17271
     17269     17267     17270     17272     17270     17272     17274     17275
     17270     17272     17274     17276     17270     17272     17274     17277
     17271     17270     17272     17273     17271     17270     17272     17274
     17272     17274     17277     17278     17272     17274     17277     17279
     17272     17274     17277     17280     17273     17272     17274     17275
     17273     17272     17274     17276     17273     17272     17274     17277
     17274     17277     17280     17281     17274     17277     17280     17282
     17274     17277     17280     17283     17275     17274     17277     17278
     17275     17274     17277     17279     17275     17274     17277     17280
     17276     17274     17277     17278     17276     17274     17277     17279
     17276     17274     17277     17280     17277     17280     17283     17284
     17277     17280     17283     17285     17277     17280     17283     17286
     17278     17277     17280     17281     17278     17277     17280     17282
     17278     17277     17280     17283     17279     17277     17280     17281
     17279     17277     17280     17282     17279     17277     17280     17283
     17280     17283     17286     17287     17280     17283     17286     17288
     17280     17283     17286     17289     17281     17280     17283     17284
     17281     17280     17283     17285     17281     17280     17283     17286
     17282     17280     17283     17284     17282     17280     17283     17285
     17282     17280     17283     17286     17283     17286     17289     17290
     17283     17286     17289     17291     17283     17286     17289     17292
     17284     17283     17286     17287     17284     17283     17286     17288
     17284     17283     17286     17289     17285     17283     17286     17287
     17285     17283     17286     17288     17285     17283     17286     17289
     17286     17289     17292     17293     17286     17289     17292     17294
     17286     17289     17292     17295     17287     17286     17289     17290
     17287     17286     17289     17291     17287     17286     17289     17292
     17288     17286     17289     17290     17288     17286     17289     17291
     17288     17286     17289     17292     17289     17292     17295     17296
     17289     17292     17295     17297     17289     17292     17295     17298
     17290     17289     17292     17293     17290     17289     17292     17294
     17290     17289     17292     17295     17291     17289     17292     17293
     17291     17289     17292     17294     17291     17289     17292     17295
     17293     17292     17295     17296     17293     17292     17295     17297
     17293     17292     17295     17298     17294     17292     17295     17296
     17294     17292     17295     17297     17294     17292     17295     17298
     17299     17303     17306     17307     17299     17303     17306     17337
     17299     17345     17342     17337     17299     17345     17342     17343
     17299     17345     17342     17344     17300     17299     17301     17302
     17300     17299     17303     17304     17300     17299     17303     17305
     17300     17299     17303     17306     17300     17299     17345     17342
     17300     17299     17345     17346     17300     17299     17345     17347
     17301     17299     17303     17304     17301     17299     17303     17305
     17301     17299     17303     17306     17301     17299     17345     17342
     17301     17299     17345     17346     17301     17299     17345     17347
     17302     17301     17299     17303     17302     17301     17299     17345
     17303     17299     17345     17342     17303     17299     17345     17346
     17303     17299     17345     17347     17303     17306     17307     17308
     17303     17306     17307     17309     17303     17306     17337     17335
     17303     17306     17337     17338     17303     17306     17337     17342
     17304     17303     17299     17345     17304     17303     17306     17307
     17304     17303     17306     17337     17305     17303     17299     17345
     17305     17303     17306     17307     17305     17303     17306     17337
     17306     17303     17299     17345     17306     17307     17309     17310
     17306     17307     17309     17311     17306     17307     17309     17312
     17306     17337     17335     17312     17306     17337     17335     17332
     17306     17337     17335     17336     17306     17337     17338     17339
     17306     17337     17338     17340     17306     17337     17338     17341
     17306     17337     17342     17343     17306     17337     17342     17344
     17306     17337     17342     17345     17307     17306     17337     17335
     17307     17306     17337     17338     17307     17306     17337     17342
     17307     17309     17312     17313     17307     17309     17312     17314
     17307     17309     17312     17335     17308     17307     17306     17337
     17308     17307     17309     17310     17308     17307     17309     17311
     17308     17307     17309     17312     17309     17307     17306     17337
     17309     17312     17314     17315     17309     17312     17314     17316
     17309     17312     17314     17324     17309     17312     17335     17332
     17309     17312     17335     17336     17309     17312     17335     17337
     17310     17309     17312     17313     17310     17309     17312     17314
     17310     17309     17312     17335     17311     17309     17312     17313
     17311     17309     17312     17314     17311     17309     17312     17335
     17312     17314     17316     17317     17312     17314     17316     17318
     17312     17314     17316     17319     17312     17314     17324     17322
     17312     17314     17324     17325     17312     17314     17324     17329
     17312     17335     17332     17329     17312     17335     17332     17333
     17312     17335     17332     17334     17312     17335     17337     17338
     17312     17335     17337     17342     17313     17312     17314     17315
     17313     17312     17314     17316     17313     17312     17314     17324
     17313     17312     17335     17332     17313     17312     17335     17336
     17313     17312     17335     17337     17314     17312     17335     17332
     17314     17312     17335     17336     17314     17312     17335     17337
     17314     17316     17319     17320     17314     17316     17319     17321
     17314     17316     17319     17322     17314     17324     17322     17319
     17314     17324     17322     17323     17314     17324     17322     17348
     17314     17324     17325     17326     17314     17324     17325     17327
     17314     17324     17325     17328     17314     17324     17329     17330
     17314     17324     17329     17331     17314     17324     17329     17332
     17315     17314     17312     17335     17315     17314     17316     17317
     17315     17314     17316     17318     17315     17314     17316     17319
     17315     17314     17324     17322     17315     17314     17324     17325
     17315     17314     17324     17329     17316     17314     17312     17335
     17316     17314     17324     17322     17316     17314     17324     17325
     17316     17314     17324     17329     17316     17319     17322     17323
     17316     17319     17322     17324     17316     17319     17322     17348
     17317     17316     17314     17324     17317     17316     17319     17320
     17317     17316     17319     17321     17317     17316     17319     17322
     17318     17316     17314     17324     17318     17316     17319     17320
     17318     17316     17319     17321     17318     17316     17319     17322
     17319     17316     17314     17324     17319     17322     17324     17325
     17319     17322     17324     17329     17319     17322     17348     17349
     17319     17322     17348     17350     17319     17322     17348     17354
     17320     17319     17322     17323     17320     17319     17322     17324
     17320     17319     17322     17348     17321     17319     17322     17323
     17321     17319     17322     17324     17321     17319     17322     17348
     17322     17324     17325     17326     17322     17324     17325     17327
     17322     17324     17325     17328     17322     17324     17329     17330
     17322     17324     17329     17331     17322     17324     17329     17332
     17322     17348     17350     17351     17322     17348     17350     17352
     17322     17348     17350     17353     17322     17348     17354     17355
     17322     17348     17354     17356     17322     17348     17354     17357
     17323     17322     17324     17325     17323     17322     17324     17329
     17323     17322     17348     17349     17323     17322     17348     17350
     17323     17322     17348     17354     17324     17314     17312     17335
     17324     17322     17348     17349     17324     17322     17348     17350
     17324     17322     17348     17354     17324     17329     17332     17333
     17324     17329     17332     17334     17324     17329     17332     17335
     17325     17324     17322     17348     17325     17324     17329     17330
     17325     17324     17329     17331     17325     17324     17329     17332
     17326     17325     17324     17329     17327     17325     17324     17329
     17328     17325     17324     17329     17329     17324     17322     17348
     17329     17332     17335     17336     17329     17332     17335     17337
     17330     17329     17332     17333     17330     17329     17332     17334
     17330     17329     17332     17335     17331     17329     17332     17333
     17331     17329     17332     17334     17331     17329     17332     17335
     17332     17335     17337     17338     17332     17335     17337     17342
     17333     17332     17335     17336     17333     17332     17335     17337
     17334     17332     17335     17336     17334     17332     17335     17337
     17335     17337     17338     17339     17335     17337     17338     17340
     17335     17337     17338     17341     17335     17337     17342     17343
     17335     17337     17342     17344     17335     17337     17342     17345
     17336     17335     17337     17338     17336     17335     17337     17342
     17337     17342     17345     17346     17337     17342     17345     17347
     17338     17337     17342     17343     17338     17337     17342     17344
     17338     17337     17342     17345     17339     17338     17337     17342
     17340     17338     17337     17342     17341     17338     17337     17342
     17343     17342     17345     17346     17343     17342     17345     17347
     17344     17342     17345     17346     17344     17342     17345     17347
     17348     17354     17357     17358     17348     17354     17357     17359
     17348     17354     17357     17360     17349     17348     17350     17351
     17349     17348     17350     17352     17349     17348     17350     17353
     17349     17348     17354     17355     17349     17348     17354     17356
     17349     17348     17354     17357     17350     17348     17354     17355
     17350     17348     17354     17356     17350     17348     17354     17357
     17351     17350     17348     17354     17352     17350     17348     17354
     17353     17350     17348     17354     17354     17357     17360     17361
     17354     17357     17360     17362     17354     17357     17360     17363
     17355     17354     17357     17358     17355     17354     17357     17359
     17355     17354     17357     17360     17356     17354     17357     17358
     17356     17354     17357     17359     17356     17354     17357     17360
     17357     17360     17363     17364     17357     17360     17363     17365
     17357     17360     17363     17369     17358     17357     17360     17361
     17358     17357     17360     17362     17358     17357     17360     17363
     17359     17357     17360     17361     17359     17357     17360     17362
     17359     17357     17360     17363     17360     17363     17365     17366
     17360     17363     17365     17367     17360     17363     17365     17368
     17360     17363     17369     17370     17360     17363     17369     17371
     17360     17363     17369     17372     17361     17360     17363     17364
     17361     17360     17363     17365     17361     17360     17363     17369
     17362     17360     17363     17364     17362     17360     17363     17365
     17362     17360     17363     17369     17364     17363     17365     17366
     17364     17363     17365     17367     17364     17363     17365     17368
     17364     17363     17369     17370     17364     17363     17369     17371
     17364     17363     17369     17372     17365     17363     17369     17370
     17365     17363     17369     17371     17365     17363     17369     17372
     17366     17365     17363     17369     17367     17365     17363     17369
     17368     17365     17363     17369     17373     17386     17389     17390
     17373     17386     17389     17391     17373     17386     17389     17396
     17374     17373     17378     17379     17374     17373     17378     17380
     17374     17373     17378     17381     17374     17373     17382     17383
     17374     17373     17382     17384     17374     17373     17382     17385
     17374     17373     17386     17387     17374     17373     17386     17388
     17374     17373     17386     17389     17375     17374     17373     17378
     17375     17374     17373     17382     17375     17374     17373     17386
     17376     17374     17373     17378     17376     17374     17373     17382
     17376     17374     17373     17386     17377     17374     17373     17378
     17377     17374     17373     17382     17377     17374     17373     17386
     17378     17373     17382     17383     17378     17373     17382     17384
     17378     17373     17382     17385     17378     17373     17386     17387
     17378     17373     17386     17388     17378     17373     17386     17389
     17379     17378     17373     17382     17379     17378     17373     17386
     17380     17378     17373     17382     17380     17378     17373     17386
     17381     17378     17373     17382     17381     17378     17373     17386
     17382     17373     17386     17387     17382     17373     17386     17388
     17382     17373     17386     17389     17383     17382     17373     17386
     17384     17382     17373     17386     17385     17382     17373     17386
     17386     17389     17396     17392     17387     17386     17389     17390
     17387     17386     17389     17391     17387     17386     17389     17396
     17388     17386     17389     17390     17388     17386     17389     17391
     17388     17386     17389     17396     17389     17396     17392     17393
     17389     17396     17392     17394     17389     17396     17392     17395
     17390     17389     17396     17392     17391     17389     17396     17392
     17392     17395     17397     17398     17392     17395     17397     17399
     17392     17395     17397     17402     17393     17392     17395     17397
     17394     17392     17395     17397     17395     17397     17402     17400
     17395     17397     17402     17403     17395     17397     17402     17404
     17396     17392     17395     17397     17397     17402     17400     17401
     17397     17402     17400     17452     17397     17402     17404     17405
     17397     17402     17404     17406     17397     17402     17404     17408
     17398     17397     17402     17400     17398     17397     17402     17403
     17398     17397     17402     17404     17399     17397     17402     17400
     17399     17397     17402     17403     17399     17397     17402     17404
     17400     17402     17404     17405     17400     17402     17404     17406
     17400     17402     17404     17408     17400     17452     17454     17455
     17400     17452     17454     17456     17400     17452     17454     17457
     17401     17400     17402     17403     17401     17400     17402     17404
     17401     17400     17452     17453     17401     17400     17452     17454
     17402     17400     17452     17453     17402     17400     17452     17454
     17402     17404     17406     17407     17402     17404     17408     17409
     17402     17404     17408     17410     17403     17402     17400     17452
     17403     17402     17404     17405     17403     17402     17404     17406
     17403     17402     17404     17408     17404     17402     17400     17452
     17404     17408     17410     17411     17404     17408     17410     17412
     17405     17404     17406     17407     17405     17404     17408     17409
     17405     17404     17408     17410     17406     17404     17408     17409
     17406     17404     17408     17410     17407     17406     17404     17408
     17408     17410     17412     17413     17408     17410     17412     17414
     17408     17410     17412     17415     17409     17408     17410     17411
     17409     17408     17410     17412     17410     17412     17415     17416
     17410     17412     17415     17417     17410     17412     17415     17418
     17411     17410     17412     17413     17411     17410     17412     17414
     17411     17410     17412     17415     17412     17415     17418     17419
     17412     17415     17418     17420     17412     17415     17418     17421
     17413     17412     17415     17416     17413     17412     17415     17417
     17413     17412     17415     17418     17414     17412     17415     17416
     17414     17412     17415     17417     17414     17412     17415     17418
     17415     17418     17421     17422     17415     17418     17421     17423
     17415     17418     17421     17424     17416     17415     17418     17419
     17416     17415     17418     17420     17416     17415     17418     17421
     17417     17415     17418     17419     17417     17415     17418     17420
     17417     17415     17418     17421     17418     17421     17424     17425
     17418     17421     17424     17426     17418     17421     17424     17427
     17419     17418     17421     17422     17419     17418     17421     17423
     17419     17418     17421     17424     17420     17418     17421     17422
     17420     17418     17421     17423     17420     17418     17421     17424
     17421     17424     17427     17428     17421     17424     17427     17429
     17421     17424     17427     17430     17422     17421     17424     17425
     17422     17421     17424     17426     17422     17421     17424     17427
     17423     17421     17424     17425     17423     17421     17424     17426
     17423     17421     17424     17427     17424     17427     17430     17431
     17424     17427     17430     17432     17424     17427     17430     17433
     17425     17424     17427     17428     17425     17424     17427     17429
     17425     17424     17427     17430     17426     17424     17427     17428
     17426     17424     17427     17429     17426     17424     17427     17430
     17427     17430     17433     17434     17427     17430     17433     17435
     17427     17430     17433     17436     17428     17427     17430     17431
     17428     17427     17430     17432     17428     17427     17430     17433
     17429     17427     17430     17431     17429     17427     17430     17432
     17429     17427     17430     17433     17430     17433     17436     17437
     17430     17433     17436     17438     17430     17433     17436     17439
     17431     17430     17433     17434     17431     17430     17433     17435
     17431     17430     17433     17436     17432     17430     17433     17434
     17432     17430     17433     17435     17432     17430     17433     17436
     17433     17436     17439     17440     17433     17436     17439     17441
     17433     17436     17439     17442     17434     17433     17436     17437
     17434     17433     17436     17438     17434     17433     17436     17439
     17435     17433     17436     17437     17435     17433     17436     17438
     17435     17433     17436     17439     17436     17439     17442     17443
     17436     17439     17442     17444     17436     17439     17442     17445
     17437     17436     17439     17440     17437     17436     17439     17441
     17437     17436     17439     17442     17438     17436     17439     17440
     17438     17436     17439     17441     17438     17436     17439     17442
     17439     17442     17445     17446     17439     17442     17445     17447
     17439     17442     17445     17448     17440     17439     17442     17443
     17440     17439     17442     17444     17440     17439     17442     17445
     17441     17439     17442     17443     17441     17439     17442     17444
     17441     17439     17442     17445     17442     17445     17448     17449
     17442     17445     17448     17450     17442     17445     17448     17451
     17443     17442     17445     17446     17443     17442     17445     17447
     17443     17442     17445     17448     17444     17442     17445     17446
     17444     17442     17445     17447     17444     17442     17445     17448
     17446     17445     17448     17449     17446     17445     17448     17450
     17446     17445     17448     17451     17447     17445     17448     17449
     17447     17445     17448     17450     17447     17445     17448     17451
     17452     17454     17457     17458     17452     17454     17457     17459
     17452     17454     17457     17460     17453     17452     17454     17455
     17453     17452     17454     17456     17453     17452     17454     17457
     17454     17457     17460     17461     17454     17457     17460     17462
     17454     17457     17460     17463     17455     17454     17457     17458
     17455     17454     17457     17459     17455     17454     17457     17460
     17456     17454     17457     17458     17456     17454     17457     17459
     17456     17454     17457     17460     17457     17460     17463     17464
     17457     17460     17463     17465     17457     17460     17463     17466
     17458     17457     17460     17461     17458     17457     17460     17462
     17458     17457     17460     17463     17459     17457     17460     17461
     17459     17457     17460     17462     17459     17457     17460     17463
     17460     17463     17466     17467     17460     17463     17466     17468
     17460     17463     17466     17469     17461     17460     17463     17464
     17461     17460     17463     17465     17461     17460     17463     17466
     17462     17460     17463     17464     17462     17460     17463     17465
     17462     17460     17463     17466     17463     17466     17469     17470
     17463     17466     17469     17471     17463     17466     17469     17472
     17464     17463     17466     17467     17464     17463     17466     17468
     17464     17463     17466     17469     17465     17463     17466     17467
     17465     17463     17466     17468     17465     17463     17466     17469
     17466     17469     17472     17473     17466     17469     17472     17474
     17466     17469     17472     17475     17467     17466     17469     17470
     17467     17466     17469     17471     17467     17466     17469     17472
     17468     17466     17469     17470     17468     17466     17469     17471
     17468     17466     17469     17472     17469     17472     17475     17476
     17469     17472     17475     17477     17470     17469     17472     17473
     17470     17469     17472     17474     17470     17469     17472     17475
     17471     17469     17472     17473     17471     17469     17472     17474
     17471     17469     17472     17475     17472     17475     17477     17478
     17472     17475     17477     17479     17473     17472     17475     17476
     17473     17472     17475     17477     17474     17472     17475     17476
     17474     17472     17475     17477     17475     17477     17479     17480
     17475     17477     17479     17481     17475     17477     17479     17482
     17476     17475     17477     17478     17476     17475     17477     17479
     17477     17479     17482     17483     17477     17479     17482     17484
     17477     17479     17482     17485     17478     17477     17479     17480
     17478     17477     17479     17481     17478     17477     17479     17482
     17479     17482     17485     17486     17479     17482     17485     17487
     17479     17482     17485     17488     17480     17479     17482     17483
     17480     17479     17482     17484     17480     17479     17482     17485
     17481     17479     17482     17483     17481     17479     17482     17484
     17481     17479     17482     17485     17482     17485     17488     17489
     17482     17485     17488     17490     17482     17485     17488     17491
     17483     17482     17485     17486     17483     17482     17485     17487
     17483     17482     17485     17488     17484     17482     17485     17486
     17484     17482     17485     17487     17484     17482     17485     17488
     17485     17488     17491     17492     17485     17488     17491     17493
     17485     17488     17491     17494     17486     17485     17488     17489
     17486     17485     17488     17490     17486     17485     17488     17491
     17487     17485     17488     17489     17487     17485     17488     17490
     17487     17485     17488     17491     17488     17491     17494     17495
     17488     17491     17494     17496     17488     17491     17494     17497
     17489     17488     17491     17492     17489     17488     17491     17493
     17489     17488     17491     17494     17490     17488     17491     17492
     17490     17488     17491     17493     17490     17488     17491     17494
     17491     17494     17497     17498     17491     17494     17497     17499
     17491     17494     17497     17500     17492     17491     17494     17495
     17492     17491     17494     17496     17492     17491     17494     17497
     17493     17491     17494     17495     17493     17491     17494     17496
     17493     17491     17494     17497     17494     17497     17500     17501
     17494     17497     17500     17502     17494     17497     17500     17503
     17495     17494     17497     17498     17495     17494     17497     17499
     17495     17494     17497     17500     17496     17494     17497     17498
     17496     17494     17497     17499     17496     17494     17497     17500
     17498     17497     17500     17501     17498     17497     17500     17502
     17498     17497     17500     17503     17499     17497     17500     17501
     17499     17497     17500     17502     17499     17497     17500     17503
     17504     17508     17510     17511     17504     17508     17510     17512
     17504     17508     17513     17514     17504     17508     17513     17515
     17504     17508     17513     17519     17505     17504     17508     17509
     17505     17504     17508     17510     17505     17504     17508     17513
     17506     17504     17508     17509     17506     17504     17508     17510
     17506     17504     17508     17513     17507     17504     17508     17509
     17507     17504     17508     17510     17507     17504     17508     17513
     17508     17513     17519     17516     17509     17508     17510     17511
     17509     17508     17510     17512     17509     17508     17513     17514
     17509     17508     17513     17515     17509     17508     17513     17519
     17510     17508     17513     17514     17510     17508     17513     17515
     17510     17508     17513     17519     17511     17510     17508     17513
     17512     17510     17508     17513     17513     17519     17516     17517
     17513     17519     17516     17518     17513     17519     17516     17520
     17514     17513     17519     17516     17515     17513     17519     17516
     17516     17520     17521     17522     17516     17520     17521     17523
     17516     17520     17521     17524     17517     17516     17520     17521
     17518     17516     17520     17521     17519     17516     17520     17521
     17520     17521     17524     17525     17520     17521     17524     17526
     17520     17521     17524     17532     17521     17524     17526     17527
     17521     17524     17532     17533     17521     17524     17532     17534
     17521     17524     17532     17535     17522     17521     17524     17525
     17522     17521     17524     17526     17522     17521     17524     17532
     17523     17521     17524     17525     17523     17521     17524     17526
     17523     17521     17524     17532     17524     17526     17527     17528
     17524     17526     17527     17529     17524     17532     17535     17536
     17525     17524     17526     17527     17525     17524     17532     17533
     17525     17524     17532     17534     17525     17524     17532     17535
     17526     17524     17532     17533     17526     17524     17532     17534
     17526     17524     17532     17535     17526     17527     17529     17530
     17526     17527     17529     17531     17526     17527     17529     17541
     17527     17526     17524     17532     17527     17529     17541     17542
     17527     17529     17541     17543     17527     17529     17541     17544
     17528     17527     17529     17530     17528     17527     17529     17531
     17528     17527     17529     17541     17529     17541     17544     17545
     17529     17541     17544     17546     17529     17541     17544     17547
     17530     17529     17541     17542     17530     17529     17541     17543
     17530     17529     17541     17544     17531     17529     17541     17542
     17531     17529     17541     17543     17531     17529     17541     17544
     17532     17535     17536     17537     17532     17535     17536     17538
     17533     17532     17535     17536     17534     17532     17535     17536
     17535     17536     17538     17539     17535     17536     17538     17540
     17535     17536     17538     17588     17536     17538     17588     17589
     17536     17538     17588     17590     17536     17538     17588     17591
     17537     17536     17538     17539     17537     17536     17538     17540
     17537     17536     17538     17588     17538     17588     17591     17592
     17538     17588     17591     17593     17538     17588     17591     17594
     17539     17538     17588     17589     17539     17538     17588     17590
     17539     17538     17588     17591     17540     17538     17588     17589
     17540     17538     17588     17590     17540     17538     17588     17591
     17541     17544     17547     17548     17541     17544     17547     17549
     17542     17541     17544     17545     17542     17541     17544     17546
     17542     17541     17544     17547     17543     17541     17544     17545
     17543     17541     17544     17546     17543     17541     17544     17547
     17544     17547     17549     17550     17544     17547     17549     17551
     17545     17544     17547     17548     17545     17544     17547     17549
     17546     17544     17547     17548     17546     17544     17547     17549
     17547     17549     17551     17552     17547     17549     17551     17553
     17547     17549     17551     17554     17548     17547     17549     17550
     17548     17547     17549     17551     17549     17551     17554     17555
     17549     17551     17554     17556     17550     17549     17551     17552
     17550     17549     17551     17553     17550     17549     17551     17554
     17551     17554     17556     17557     17551     17554     17556     17558
     17552     17551     17554     17555     17552     17551     17554     17556
     17553     17551     17554     17555     17553     17551     17554     17556
     17554     17556     17558     17559     17554     17556     17558     17560
     17554     17556     17558     17561     17555     17554     17556     17557
     17555     17554     17556     17558     17556     17558     17561     17562
     17556     17558     17561     17563     17557     17556     17558     17559
     17557     17556     17558     17560     17557     17556     17558     17561
     17558     17561     17563     17564     17558     17561     17563     17565
     17559     17558     17561     17562     17559     17558     17561     17563
     17560     17558     17561     17562     17560     17558     17561     17563
     17561     17563     17565     17566     17561     17563     17565     17567
     17561     17563     17565     17568     17562     17561     17563     17564
     17562     17561     17563     17565     17563     17565     17568     17569
     17563     17565     17568     17570     17564     17563     17565     17566
     17564     17563     17565     17567     17564     17563     17565     17568
     17565     17568     17570     17571     17565     17568     17570     17572
     17566     17565     17568     17569     17566     17565     17568     17570
     17567     17565     17568     17569     17567     17565     17568     17570
     17568     17570     17572     17573     17568     17570     17572     17574
     17568     17570     17572     17575     17569     17568     17570     17571
     17569     17568     17570     17572     17570     17572     17575     17576
     17570     17572     17575     17577     17570     17572     17575     17578
     17571     17570     17572     17573     17571     17570     17572     17574
     17571     17570     17572     17575     17572     17575     17578     17579
     17572     17575     17578     17580     17572     17575     17578     17581
     17573     17572     17575     17576     17573     17572     17575     17577
     17573     17572     17575     17578     17574     17572     17575     17576
     17574     17572     17575     17577     17574     17572     17575     17578
     17575     17578     17581     17582     17575     17578     17581     17583
     17575     17578     17581     17584     17576     17575     17578     17579
     17576     17575     17578     17580     17576     17575     17578     17581
     17577     17575     17578     17579     17577     17575     17578     17580
     17577     17575     17578     17581     17578     17581     17584     17585
     17578     17581     17584     17586     17578     17581     17584     17587
     17579     17578     17581     17582     17579     17578     17581     17583
     17579     17578     17581     17584     17580     17578     17581     17582
     17580     17578     17581     17583     17580     17578     17581     17584
     17582     17581     17584     17585     17582     17581     17584     17586
     17582     17581     17584     17587     17583     17581     17584     17585
     17583     17581     17584     17586     17583     17581     17584     17587
     17588     17591     17594     17595     17588     17591     17594     17596
     17588     17591     17594     17597     17589     17588     17591     17592
     17589     17588     17591     17593     17589     17588     17591     17594
     17590     17588     17591     17592     17590     17588     17591     17593
     17590     17588     17591     17594     17591     17594     17597     17598
     17591     17594     17597     17599     17591     17594     17597     17600
     17592     17591     17594     17595     17592     17591     17594     17596
     17592     17591     17594     17597     17593     17591     17594     17595
     17593     17591     17594     17596     17593     17591     17594     17597
     17594     17597     17600     17601     17594     17597     17600     17602
     17594     17597     17600     17603     17595     17594     17597     17598
     17595     17594     17597     17599     17595     17594     17597     17600
     17596     17594     17597     17598     17596     17594     17597     17599
     17596     17594     17597     17600     17597     17600     17603     17604
     17597     17600     17603     17605     17597     17600     17603     17606
     17598     17597     17600     17601     17598     17597     17600     17602
     17598     17597     17600     17603     17599     17597     17600     17601
     17599     17597     17600     17602     17599     17597     17600     17603
     17600     17603     17606     17607     17600     17603     17606     17608
     17600     17603     17606     17609     17601     17600     17603     17604
     17601     17600     17603     17605     17601     17600     17603     17606
     17602     17600     17603     17604     17602     17600     17603     17605
     17602     17600     17603     17606     17603     17606     17609     17610
     17603     17606     17609     17611     17603     17606     17609     17612
     17604     17603     17606     17607     17604     17603     17606     17608
     17604     17603     17606     17609     17605     17603     17606     17607
     17605     17603     17606     17608     17605     17603     17606     17609
     17606     17609     17612     17613     17606     17609     17612     17614
     17606     17609     17612     17615     17607     17606     17609     17610
     17607     17606     17609     17611     17607     17606     17609     17612
     17608     17606     17609     17610     17608     17606     17609     17611
     17608     17606     17609     17612     17609     17612     17615     17616
     17609     17612     17615     17617     17609     17612     17615     17618
     17610     17609     17612     17613     17610     17609     17612     17614
     17610     17609     17612     17615     17611     17609     17612     17613
     17611     17609     17612     17614     17611     17609     17612     17615
     17612     17615     17618     17619     17612     17615     17618     17620
     17612     17615     17618     17621     17613     17612     17615     17616
     17613     17612     17615     17617     17613     17612     17615     17618
     17614     17612     17615     17616     17614     17612     17615     17617
     17614     17612     17615     17618     17615     17618     17621     17622
     17615     17618     17621     17623     17615     17618     17621     17624
     17616     17615     17618     17619     17616     17615     17618     17620
     17616     17615     17618     17621     17617     17615     17618     17619
     17617     17615     17618     17620     17617     17615     17618     17621
     17618     17621     17624     17625     17618     17621     17624     17626
     17618     17621     17624     17627     17619     17618     17621     17622
     17619     17618     17621     17623     17619     17618     17621     17624
     17620     17618     17621     17622     17620     17618     17621     17623
     17620     17618     17621     17624     17621     17624     17627     17628
     17621     17624     17627     17629     17621     17624     17627     17630
     17622     17621     17624     17625     17622     17621     17624     17626
     17622     17621     17624     17627     17623     17621     17624     17625
     17623     17621     17624     17626     17623     17621     17624     17627
     17624     17627     17630     17631     17624     17627     17630     17632
     17624     17627     17630     17633     17625     17624     17627     17628
     17625     17624     17627     17629     17625     17624     17627     17630
     17626     17624     17627     17628     17626     17624     17627     17629
     17626     17624     17627     17630     17627     17630     17633     17634
     17627     17630     17633     17635     17627     17630     17633     17636
     17628     17627     17630     17631     17628     17627     17630     17632
     17628     17627     17630     17633     17629     17627     17630     17631
     17629     17627     17630     17632     17629     17627     17630     17633
     17631     17630     17633     17634     17631     17630     17633     17635
     17631     17630     17633     17636     17632     17630     17633     17634
     17632     17630     17633     17635     17632     17630     17633     17636
     17637     17641     17644     17645     17637     17641     17644     17646
     17637     17641     17644     17650     17638     17637     17641     17642
     17638     17637     17641     17643     17638     17637     17641     17644
     17639     17637     17641     17642     17639     17637     17641     17643
     17639     17637     17641     17644     17640     17637     17641     17642
     17640     17637     17641     17643     17640     17637     17641     17644
     17641     17644     17650     17647     17642     17641     17644     17645
     17642     17641     17644     17646     17642     17641     17644     17650
     17643     17641     17644     17645     17643     17641     17644     17646
     17643     17641     17644     17650     17644     17650     17647     17648
     17644     17650     17647     17649     17644     17650     17647     17651
     17645     17644     17650     17647     17646     17644     17650     17647
     17647     17651     17652     17653     17647     17651     17652     17654
     17647     17651     17652     17655     17648     17647     17651     17652
     17649     17647     17651     17652     17650     17647     17651     17652
     17651     17652     17655     17656     17651     17652     17655     17657
     17651     17652     17655     17663     17652     17655     17657     17658
     17652     17655     17663     17664     17652     17655     17663     17665
     17652     17655     17663     17666     17653     17652     17655     17656
     17653     17652     17655     17657     17653     17652     17655     17663
     17654     17652     17655     17656     17654     17652     17655     17657
     17654     17652     17655     17663     17655     17657     17658     17659
     17655     17657     17658     17660     17655     17663     17666     17667
     17656     17655     17657     17658     17656     17655     17663     17664
     17656     17655     17663     17665     17656     17655     17663     17666
     17657     17655     17663     17664     17657     17655     17663     17665
     17657     17655     17663     17666     17657     17658     17660     17661
     17657     17658     17660     17662     17657     17658     17660     17672
     17658     17657     17655     17663     17658     17660     17672     17673
     17658     17660     17672     17674     17658     17660     17672     17675
     17659     17658     17660     17661     17659     17658     17660     17662
     17659     17658     17660     17672     17660     17672     17675     17676
     17660     17672     17675     17677     17660     17672     17675     17678
     17661     17660     17672     17673     17661     17660     17672     17674
     17661     17660     17672     17675     17662     17660     17672     17673
     17662     17660     17672     17674     17662     17660     17672     17675
     17663     17666     17667     17668     17663     17666     17667     17669
     17664     17663     17666     17667     17665     17663     17666     17667
     17666     17667     17669     17670     17666     17667     17669     17671
     17666     17667     17669     17719     17667     17669     17719     17720
     17667     17669     17719     17721     17667     17669     17719     17722
     17668     17667     17669     17670     17668     17667     17669     17671
     17668     17667     17669     17719     17669     17719     17722     17723
     17669     17719     17722     17724     17669     17719     17722     17725
     17670     17669     17719     17720     17670     17669     17719     17721
     17670     17669     17719     17722     17671     17669     17719     17720
     17671     17669     17719     17721     17671     17669     17719     17722
     17672     17675     17678     17679     17672     17675     17678     17680
     17673     17672     17675     17676     17673     17672     17675     17677
     17673     17672     17675     17678     17674     17672     17675     17676
     17674     17672     17675     17677     17674     17672     17675     17678
     17675     17678     17680     17681     17675     17678     17680     17682
     17676     17675     17678     17679     17676     17675     17678     17680
     17677     17675     17678     17679     17677     17675     17678     17680
     17678     17680     17682     17683     17678     17680     17682     17684
     17678     17680     17682     17685     17679     17678     17680     17681
     17679     17678     17680     17682     17680     17682     17685     17686
     17680     17682     17685     17687     17681     17680     17682     17683
     17681     17680     17682     17684     17681     17680     17682     17685
     17682     17685     17687     17688     17682     17685     17687     17689
     17683     17682     17685     17686     17683     17682     17685     17687
     17684     17682     17685     17686     17684     17682     17685     17687
     17685     17687     17689     17690     17685     17687     17689     17691
     17685     17687     17689     17692     17686     17685     17687     17688
     17686     17685     17687     17689     17687     17689     17692     17693
     17687     17689     17692     17694     17688     17687     17689     17690
     17688     17687     17689     17691     17688     17687     17689     17692
     17689     17692     17694     17695     17689     17692     17694     17696
     17690     17689     17692     17693     17690     17689     17692     17694
     17691     17689     17692     17693     17691     17689     17692     17694
     17692     17694     17696     17697     17692     17694     17696     17698
     17692     17694     17696     17699     17693     17692     17694     17695
     17693     17692     17694     17696     17694     17696     17699     17700
     17694     17696     17699     17701     17695     17694     17696     17697
     17695     17694     17696     17698     17695     17694     17696     17699
     17696     17699     17701     17702     17696     17699     17701     17703
     17697     17696     17699     17700     17697     17696     17699     17701
     17698     17696     17699     17700     17698     17696     17699     17701
     17699     17701     17703     17704     17699     17701     17703     17705
     17699     17701     17703     17706     17700     17699     17701     17702
     17700     17699     17701     17703     17701     17703     17706     17707
     17701     17703     17706     17708     17701     17703     17706     17709
     17702     17701     17703     17704     17702     17701     17703     17705
     17702     17701     17703     17706     17703     17706     17709     17710
     17703     17706     17709     17711     17703     17706     17709     17712
     17704     17703     17706     17707     17704     17703     17706     17708
     17704     17703     17706     17709     17705     17703     17706     17707
     17705     17703     17706     17708     17705     17703     17706     17709
     17706     17709     17712     17713     17706     17709     17712     17714
     17706     17709     17712     17715     17707     17706     17709     17710
     17707     17706     17709     17711     17707     17706     17709     17712
     17708     17706     17709     17710     17708     17706     17709     17711
     17708     17706     17709     17712     17709     17712     17715     17716
     17709     17712     17715     17717     17709     17712     17715     17718
     17710     17709     17712     17713     17710     17709     17712     17714
     17710     17709     17712     17715     17711     17709     17712     17713
     17711     17709     17712     17714     17711     17709     17712     17715
     17713     17712     17715     17716     17713     17712     17715     17717
     17713     17712     17715     17718     17714     17712     17715     17716
     17714     17712     17715     17717     17714     17712     17715     17718
     17719     17722     17725     17726     17719     17722     17725     17727
     17719     17722     17725     17728     17720     17719     17722     17723
     17720     17719     17722     17724     17720     17719     17722     17725
     17721     17719     17722     17723     17721     17719     17722     17724
     17721     17719     17722     17725     17722     17725     17728     17729
     17722     17725     17728     17730     17722     17725     17728     17731
     17723     17722     17725     17726     17723     17722     17725     17727
     17723     17722     17725     17728     17724     17722     17725     17726
     17724     17722     17725     17727     17724     17722     17725     17728
     17725     17728     17731     17732     17725     17728     17731     17733
     17725     17728     17731     17734     17726     17725     17728     17729
     17726     17725     17728     17730     17726     17725     17728     17731
     17727     17725     17728     17729     17727     17725     17728     17730
     17727     17725     17728     17731     17728     17731     17734     17735
     17728     17731     17734     17736     17728     17731     17734     17737
     17729     17728     17731     17732     17729     17728     17731     17733
     17729     17728     17731     17734     17730     17728     17731     17732
     17730     17728     17731     17733     17730     17728     17731     17734
     17731     17734     17737     17738     17731     17734     17737     17739
     17731     17734     17737     17740     17732     17731     17734     17735
     17732     17731     17734     17736     17732     17731     17734     17737
     17733     17731     17734     17735     17733     17731     17734     17736
     17733     17731     17734     17737     17734     17737     17740     17741
     17734     17737     17740     17742     17734     17737     17740     17743
     17735     17734     17737     17738     17735     17734     17737     17739
     17735     17734     17737     17740     17736     17734     17737     17738
     17736     17734     17737     17739     17736     17734     17737     17740
     17737     17740     17743     17744     17737     17740     17743     17745
     17737     17740     17743     17746     17738     17737     17740     17741
     17738     17737     17740     17742     17738     17737     17740     17743
     17739     17737     17740     17741     17739     17737     17740     17742
     17739     17737     17740     17743     17740     17743     17746     17747
     17740     17743     17746     17748     17740     17743     17746     17749
     17741     17740     17743     17744     17741     17740     17743     17745
     17741     17740     17743     17746     17742     17740     17743     17744
     17742     17740     17743     17745     17742     17740     17743     17746
     17743     17746     17749     17750     17743     17746     17749     17751
     17743     17746     17749     17752     17744     17743     17746     17747
     17744     17743     17746     17748     17744     17743     17746     17749
     17745     17743     17746     17747     17745     17743     17746     17748
     17745     17743     17746     17749     17746     17749     17752     17753
     17746     17749     17752     17754     17746     17749     17752     17755
     17747     17746     17749     17750     17747     17746     17749     17751
     17747     17746     17749     17752     17748     17746     17749     17750
     17748     17746     17749     17751     17748     17746     17749     17752
     17749     17752     17755     17756     17749     17752     17755     17757
     17749     17752     17755     17758     17750     17749     17752     17753
     17750     17749     17752     17754     17750     17749     17752     17755
     17751     17749     17752     17753     17751     17749     17752     17754
     17751     17749     17752     17755     17752     17755     17758     17759
     17752     17755     17758     17760     17752     17755     17758     17761
     17753     17752     17755     17756     17753     17752     17755     17757
     17753     17752     17755     17758     17754     17752     17755     17756
     17754     17752     17755     17757     17754     17752     17755     17758
     17755     17758     17761     17762     17755     17758     17761     17763
     17755     17758     17761     17764     17756     17755     17758     17759
     17756     17755     17758     17760     17756     17755     17758     17761
     17757     17755     17758     17759     17757     17755     17758     17760
     17757     17755     17758     17761     17758     17761     17764     17765
     17758     17761     17764     17766     17758     17761     17764     17767
     17759     17758     17761     17762     17759     17758     17761     17763
     17759     17758     17761     17764     17760     17758     17761     17762
     17760     17758     17761     17763     17760     17758     17761     17764
     17762     17761     17764     17765     17762     17761     17764     17766
     17762     17761     17764     17767     17763     17761     17764     17765
     17763     17761     17764     17766     17763     17761     17764     17767
     17768     17769     17784     17785     17768     17769     17784     17786
     17768     17769     17784     17790     17769     17768     17772     17773
     17769     17768     17772     17774     17769     17768     17772     17775
     17769     17768     17776     17777     17769     17768     17776     17778
     17769     17768     17776     17779     17769     17768     17780     17781
     17769     17768     17780     17782     17769     17768     17780     17783
     17769     17784     17790     17787     17770     17769     17768     17772
     17770     17769     17768     17776     17770     17769     17768     17780
     17770     17769     17784     17785     17770     17769     17784     17786
     17770     17769     17784     17790     17771     17769     17768     17772
     17771     17769     17768     17776     17771     17769     17768     17780
     17771     17769     17784     17785     17771     17769     17784     17786
     17771     17769     17784     17790     17772     17768     17769     17784
     17772     17768     17776     17777     17772     17768     17776     17778
     17772     17768     17776     17779     17772     17768     17780     17781
     17772     17768     17780     17782     17772     17768     17780     17783
     17773     17772     17768     17776     17773     17772     17768     17780
     17774     17772     17768     17776     17774     17772     17768     17780
     17775     17772     17768     17776     17775     17772     17768     17780
     17776     17768     17769     17784     17776     17768     17780     17781
     17776     17768     17780     17782     17776     17768     17780     17783
     17777     17776     17768     17780     17778     17776     17768     17780
     17779     17776     17768     17780     17780     17768     17769     17784
     17784     17790     17787     17788     17784     17790     17787     17789
     17784     17790     17787     17791     17785     17784     17790     17787
     17786     17784     17790     17787     17787     17791     17792     17793
     17787     17791     17792     17794     17787     17791     17792     17795
     17788     17787     17791     17792     17789     17787     17791     17792
     17790     17787     17791     17792     17791     17792     17795     17796
     17791     17792     17795     17797     17791     17792     17795     17803
     17792     17795     17797     17798     17792     17795     17803     17804
     17792     17795     17803     17805     17792     17795     17803     17806
     17793     17792     17795     17796     17793     17792     17795     17797
     17793     17792     17795     17803     17794     17792     17795     17796
     17794     17792     17795     17797     17794     17792     17795     17803
     17795     17797     17798     17799     17795     17797     17798     17800
     17795     17803     17806     17807     17796     17795     17797     17798
     17796     17795     17803     17804     17796     17795     17803     17805
     17796     17795     17803     17806     17797     17795     17803     17804
     17797     17795     17803     17805     17797     17795     17803     17806
     17797     17798     17800     17801     17797     17798     17800     17802
     17797     17798     17800     17812     17798     17797     17795     17803
     17798     17800     17812     17813     17798     17800     17812     17814
     17798     17800     17812     17815     17799     17798     17800     17801
     17799     17798     17800     17802     17799     17798     17800     17812
     17800     17812     17815     17816     17800     17812     17815     17817
     17800     17812     17815     17818     17801     17800     17812     17813
     17801     17800     17812     17814     17801     17800     17812     17815
     17802     17800     17812     17813     17802     17800     17812     17814
     17802     17800     17812     17815     17803     17806     17807     17808
     17803     17806     17807     17809     17804     17803     17806     17807
     17805     17803     17806     17807     17806     17807     17809     17810
     17806     17807     17809     17811     17806     17807     17809     17859
     17807     17809     17859     17860     17807     17809     17859     17861
     17807     17809     17859     17862     17808     17807     17809     17810
     17808     17807     17809     17811     17808     17807     17809     17859
     17809     17859     17862     17863     17809     17859     17862     17864
     17809     17859     17862     17865     17810     17809     17859     17860
     17810     17809     17859     17861     17810     17809     17859     17862
     17811     17809     17859     17860     17811     17809     17859     17861
     17811     17809     17859     17862     17812     17815     17818     17819
     17812     17815     17818     17820     17812     17815     17818     17821
     17813     17812     17815     17816     17813     17812     17815     17817
     17813     17812     17815     17818     17814     17812     17815     17816
     17814     17812     17815     17817     17814     17812     17815     17818
     17815     17818     17821     17822     17815     17818     17821     17823
     17815     17818     17821     17824     17816     17815     17818     17819
     17816     17815     17818     17820     17816     17815     17818     17821
     17817     17815     17818     17819     17817     17815     17818     17820
     17817     17815     17818     17821     17818     17821     17824     17825
     17818     17821     17824     17826     17818     17821     17824     17827
     17819     17818     17821     17822     17819     17818     17821     17823
     17819     17818     17821     17824     17820     17818     17821     17822
     17820     17818     17821     17823     17820     17818     17821     17824
     17821     17824     17827     17828     17821     17824     17827     17829
     17821     17824     17827     17830     17822     17821     17824     17825
     17822     17821     17824     17826     17822     17821     17824     17827
     17823     17821     17824     17825     17823     17821     17824     17826
     17823     17821     17824     17827     17824     17827     17830     17831
     17824     17827     17830     17832     17825     17824     17827     17828
     17825     17824     17827     17829     17825     17824     17827     17830
     17826     17824     17827     17828     17826     17824     17827     17829
     17826     17824     17827     17830     17827     17830     17832     17833
     17827     17830     17832     17834     17828     17827     17830     17831
     17828     17827     17830     17832     17829     17827     17830     17831
     17829     17827     17830     17832     17830     17832     17834     17835
     17830     17832     17834     17836     17830     17832     17834     17837
     17831     17830     17832     17833     17831     17830     17832     17834
     17832     17834     17837     17838     17832     17834     17837     17839
     17832     17834     17837     17840     17833     17832     17834     17835
     17833     17832     17834     17836     17833     17832     17834     17837
     17834     17837     17840     17841     17834     17837     17840     17842
     17834     17837     17840     17843     17835     17834     17837     17838
     17835     17834     17837     17839     17835     17834     17837     17840
     17836     17834     17837     17838     17836     17834     17837     17839
     17836     17834     17837     17840     17837     17840     17843     17844
     17837     17840     17843     17845     17837     17840     17843     17846
     17838     17837     17840     17841     17838     17837     17840     17842
     17838     17837     17840     17843     17839     17837     17840     17841
     17839     17837     17840     17842     17839     17837     17840     17843
     17840     17843     17846     17847     17840     17843     17846     17848
     17840     17843     17846     17849     17841     17840     17843     17844
     17841     17840     17843     17845     17841     17840     17843     17846
     17842     17840     17843     17844     17842     17840     17843     17845
     17842     17840     17843     17846     17843     17846     17849     17850
     17843     17846     17849     17851     17843     17846     17849     17852
     17844     17843     17846     17847     17844     17843     17846     17848
     17844     17843     17846     17849     17845     17843     17846     17847
     17845     17843     17846     17848     17845     17843     17846     17849
     17846     17849     17852     17853     17846     17849     17852     17854
     17846     17849     17852     17855     17847     17846     17849     17850
     17847     17846     17849     17851     17847     17846     17849     17852
     17848     17846     17849     17850     17848     17846     17849     17851
     17848     17846     17849     17852     17849     17852     17855     17856
     17849     17852     17855     17857     17849     17852     17855     17858
     17850     17849     17852     17853     17850     17849     17852     17854
     17850     17849     17852     17855     17851     17849     17852     17853
     17851     17849     17852     17854     17851     17849     17852     17855
     17853     17852     17855     17856     17853     17852     17855     17857
     17853     17852     17855     17858     17854     17852     17855     17856
     17854     17852     17855     17857     17854     17852     17855     17858
     17859     17862     17865     17866     17859     17862     17865     17867
     17859     17862     17865     17868     17860     17859     17862     17863
     17860     17859     17862     17864     17860     17859     17862     17865
     17861     17859     17862     17863     17861     17859     17862     17864
     17861     17859     17862     17865     17862     17865     17868     17869
     17862     17865     17868     17870     17862     17865     17868     17871
     17863     17862     17865     17866     17863     17862     17865     17867
     17863     17862     17865     17868     17864     17862     17865     17866
     17864     17862     17865     17867     17864     17862     17865     17868
     17865     17868     17871     17872     17865     17868     17871     17873
     17865     17868     17871     17874     17866     17865     17868     17869
     17866     17865     17868     17870     17866     17865     17868     17871
     17867     17865     17868     17869     17867     17865     17868     17870
     17867     17865     17868     17871     17868     17871     17874     17875
     17868     17871     17874     17876     17868     17871     17874     17877
     17869     17868     17871     17872     17869     17868     17871     17873
     17869     17868     17871     17874     17870     17868     17871     17872
     17870     17868     17871     17873     17870     17868     17871     17874
     17871     17874     17877     17878     17871     17874     17877     17879
     17871     17874     17877     17880     17872     17871     17874     17875
     17872     17871     17874     17876     17872     17871     17874     17877
     17873     17871     17874     17875     17873     17871     17874     17876
     17873     17871     17874     17877     17874     17877     17880     17881
     17874     17877     17880     17882     17874     17877     17880     17883
     17875     17874     17877     17878     17875     17874     17877     17879
     17875     17874     17877     17880     17876     17874     17877     17878
     17876     17874     17877     17879     17876     17874     17877     17880
     17877     17880     17883     17884     17877     17880     17883     17885
     17877     17880     17883     17886     17878     17877     17880     17881
     17878     17877     17880     17882     17878     17877     17880     17883
     17879     17877     17880     17881     17879     17877     17880     17882
     17879     17877     17880     17883     17880     17883     17886     17887
     17880     17883     17886     17888     17880     17883     17886     17889
     17881     17880     17883     17884     17881     17880     17883     17885
     17881     17880     17883     17886     17882     17880     17883     17884
     17882     17880     17883     17885     17882     17880     17883     17886
     17883     17886     17889     17890     17883     17886     17889     17891
     17883     17886     17889     17892     17884     17883     17886     17887
     17884     17883     17886     17888     17884     17883     17886     17889
     17885     17883     17886     17887     17885     17883     17886     17888
     17885     17883     17886     17889     17886     17889     17892     17893
     17886     17889     17892     17894     17886     17889     17892     17895
     17887     17886     17889     17890     17887     17886     17889     17891
     17887     17886     17889     17892     17888     17886     17889     17890
     17888     17886     17889     17891     17888     17886     17889     17892
     17889     17892     17895     17896     17889     17892     17895     17897
     17889     17892     17895     17898     17890     17889     17892     17893
     17890     17889     17892     17894     17890     17889     17892     17895
     17891     17889     17892     17893     17891     17889     17892     17894
     17891     17889     17892     17895     17892     17895     17898     17899
     17892     17895     17898     17900     17892     17895     17898     17901
     17893     17892     17895     17896     17893     17892     17895     17897
     17893     17892     17895     17898     17894     17892     17895     17896
     17894     17892     17895     17897     17894     17892     17895     17898
     17896     17895     17898     17899     17896     17895     17898     17900
     17896     17895     17898     17901     17897     17895     17898     17899
     17897     17895     17898     17900     17897     17895     17898     17901
     17902     17906     17909     17910     17902     17906     17909     17911
     17902     17906     17909     17915     17903     17902     17906     17907
     17903     17902     17906     17908     17903     17902     17906     17909
     17904     17902     17906     17907     17904     17902     17906     17908
     17904     17902     17906     17909     17905     17902     17906     17907
     17905     17902     17906     17908     17905     17902     17906     17909
     17906     17909     17915     17912     17907     17906     17909     17910
     17907     17906     17909     17911     17907     17906     17909     17915
     17908     17906     17909     17910     17908     17906     17909     17911
     17908     17906     17909     17915     17909     17915     17912     17913
     17909     17915     17912     17914     17909     17915     17912     17916
     17910     17909     17915     17912     17911     17909     17915     17912
     17912     17916     17917     17918     17912     17916     17917     17919
     17912     17916     17917     17920     17913     17912     17916     17917
     17914     17912     17916     17917     17915     17912     17916     17917
     17916     17917     17920     17921     17916     17917     17920     17922
     17916     17917     17920     17928     17917     17920     17922     17923
     17917     17920     17928     17929     17917     17920     17928     17930
     17917     17920     17928     17931     17918     17917     17920     17921
     17918     17917     17920     17922     17918     17917     17920     17928
     17919     17917     17920     17921     17919     17917     17920     17922
     17919     17917     17920     17928     17920     17922     17923     17924
     17920     17922     17923     17925     17920     17928     17931     17932
     17921     17920     17922     17923     17921     17920     17928     17929
     17921     17920     17928     17930     17921     17920     17928     17931
     17922     17920     17928     17929     17922     17920     17928     17930
     17922     17920     17928     17931     17922     17923     17925     17926
     17922     17923     17925     17927     17922     17923     17925     17937
     17923     17922     17920     17928     17923     17925     17937     17938
     17923     17925     17937     17939     17923     17925     17937     17940
     17924     17923     17925     17926     17924     17923     17925     17927
     17924     17923     17925     17937     17925     17937     17940     17941
     17925     17937     17940     17942     17925     17937     17940     17943
     17926     17925     17937     17938     17926     17925     17937     17939
     17926     17925     17937     17940     17927     17925     17937     17938
     17927     17925     17937     17939     17927     17925     17937     17940
     17928     17931     17932     17933     17928     17931     17932     17934
     17929     17928     17931     17932     17930     17928     17931     17932
     17931     17932     17934     17935     17931     17932     17934     17936
     17931     17932     17934     17984     17932     17934     17984     17985
     17932     17934     17984     17986     17932     17934     17984     17987
     17933     17932     17934     17935     17933     17932     17934     17936
     17933     17932     17934     17984     17934     17984     17987     17988
     17934     17984     17987     17989     17934     17984     17987     17990
     17935     17934     17984     17985     17935     17934     17984     17986
     17935     17934     17984     17987     17936     17934     17984     17985
     17936     17934     17984     17986     17936     17934     17984     17987
     17937     17940     17943     17944     17937     17940     17943     17945
     17937     17940     17943     17946     17938     17937     17940     17941
     17938     17937     17940     17942     17938     17937     17940     17943
     17939     17937     17940     17941     17939     17937     17940     17942
     17939     17937     17940     17943     17940     17943     17946     17947
     17940     17943     17946     17948     17940     17943     17946     17949
     17941     17940     17943     17944     17941     17940     17943     17945
     17941     17940     17943     17946     17942     17940     17943     17944
     17942     17940     17943     17945     17942     17940     17943     17946
     17943     17946     17949     17950     17943     17946     17949     17951
     17943     17946     17949     17952     17944     17943     17946     17947
     17944     17943     17946     17948     17944     17943     17946     17949
     17945     17943     17946     17947     17945     17943     17946     17948
     17945     17943     17946     17949     17946     17949     17952     17953
     17946     17949     17952     17954     17946     17949     17952     17955
     17947     17946     17949     17950     17947     17946     17949     17951
     17947     17946     17949     17952     17948     17946     17949     17950
     17948     17946     17949     17951     17948     17946     17949     17952
     17949     17952     17955     17956     17949     17952     17955     17957
     17950     17949     17952     17953     17950     17949     17952     17954
     17950     17949     17952     17955     17951     17949     17952     17953
     17951     17949     17952     17954     17951     17949     17952     17955
     17952     17955     17957     17958     17952     17955     17957     17959
     17953     17952     17955     17956     17953     17952     17955     17957
     17954     17952     17955     17956     17954     17952     17955     17957
     17955     17957     17959     17960     17955     17957     17959     17961
     17955     17957     17959     17962     17956     17955     17957     17958
     17956     17955     17957     17959     17957     17959     17962     17963
     17957     17959     17962     17964     17957     17959     17962     17965
     17958     17957     17959     17960     17958     17957     17959     17961
     17958     17957     17959     17962     17959     17962     17965     17966
     17959     17962     17965     17967     17959     17962     17965     17968
     17960     17959     17962     17963     17960     17959     17962     17964
     17960     17959     17962     17965     17961     17959     17962     17963
     17961     17959     17962     17964     17961     17959     17962     17965
     17962     17965     17968     17969     17962     17965     17968     17970
     17962     17965     17968     17971     17963     17962     17965     17966
     17963     17962     17965     17967     17963     17962     17965     17968
     17964     17962     17965     17966     17964     17962     17965     17967
     17964     17962     17965     17968     17965     17968     17971     17972
     17965     17968     17971     17973     17965     17968     17971     17974
     17966     17965     17968     17969     17966     17965     17968     17970
     17966     17965     17968     17971     17967     17965     17968     17969
     17967     17965     17968     17970     17967     17965     17968     17971
     17968     17971     17974     17975     17968     17971     17974     17976
     17968     17971     17974     17977     17969     17968     17971     17972
     17969     17968     17971     17973     17969     17968     17971     17974
     17970     17968     17971     17972     17970     17968     17971     17973
     17970     17968     17971     17974     17971     17974     17977     17978
     17971     17974     17977     17979     17971     17974     17977     17980
     17972     17971     17974     17975     17972     17971     17974     17976
     17972     17971     17974     17977     17973     17971     17974     17975
     17973     17971     17974     17976     17973     17971     17974     17977
     17974     17977     17980     17981     17974     17977     17980     17982
     17974     17977     17980     17983     17975     17974     17977     17978
     17975     17974     17977     17979     17975     17974     17977     17980
     17976     17974     17977     17978     17976     17974     17977     17979
     17976     17974     17977     17980     17978     17977     17980     17981
     17978     17977     17980     17982     17978     17977     17980     17983
     17979     17977     17980     17981     17979     17977     17980     17982
     17979     17977     17980     17983     17984     17987     17990     17991
     17984     17987     17990     17992     17984     17987     17990     17993
     17985     17984     17987     17988     17985     17984     17987     17989
     17985     17984     17987     17990     17986     17984     17987     17988
     17986     17984     17987     17989     17986     17984     17987     17990
     17987     17990     17993     17994     17987     17990     17993     17995
     17987     17990     17993     17996     17988     17987     17990     17991
     17988     17987     17990     17992     17988     17987     17990     17993
     17989     17987     17990     17991     17989     17987     17990     17992
     17989     17987     17990     17993     17990     17993     17996     17997
     17990     17993     17996     17998     17990     17993     17996     17999
     17991     17990     17993     17994     17991     17990     17993     17995
     17991     17990     17993     17996     17992     17990     17993     17994
     17992     17990     17993     17995     17992     17990     17993     17996
     17993     17996     17999     18000     17993     17996     17999     18001
     17993     17996     17999     18002     17994     17993     17996     17997
     17994     17993     17996     17998     17994     17993     17996     17999
     17995     17993     17996     17997     17995     17993     17996     17998
     17995     17993     17996     17999     17996     17999     18002     18003
     17996     17999     18002     18004     17996     17999     18002     18005
     17997     17996     17999     18000     17997     17996     17999     18001
     17997     17996     17999     18002     17998     17996     17999     18000
     17998     17996     17999     18001     17998     17996     17999     18002
     17999     18002     18005     18006     17999     18002     18005     18007
     17999     18002     18005     18008     18000     17999     18002     18003
     18000     17999     18002     18004     18000     17999     18002     18005
     18001     17999     18002     18003     18001     17999     18002     18004
     18001     17999     18002     18005     18002     18005     18008     18009
     18002     18005     18008     18010     18002     18005     18008     18011
     18003     18002     18005     18006     18003     18002     18005     18007
     18003     18002     18005     18008     18004     18002     18005     18006
     18004     18002     18005     18007     18004     18002     18005     18008
     18005     18008     18011     18012     18005     18008     18011     18013
     18005     18008     18011     18014     18006     18005     18008     18009
     18006     18005     18008     18010     18006     18005     18008     18011
     18007     18005     18008     18009     18007     18005     18008     18010
     18007     18005     18008     18011     18008     18011     18014     18015
     18008     18011     18014     18016     18008     18011     18014     18017
     18009     18008     18011     18012     18009     18008     18011     18013
     18009     18008     18011     18014     18010     18008     18011     18012
     18010     18008     18011     18013     18010     18008     18011     18014
     18011     18014     18017     18018     18011     18014     18017     18019
     18011     18014     18017     18020     18012     18011     18014     18015
     18012     18011     18014     18016     18012     18011     18014     18017
     18013     18011     18014     18015     18013     18011     18014     18016
     18013     18011     18014     18017     18014     18017     18020     18021
     18014     18017     18020     18022     18014     18017     18020     18023
     18015     18014     18017     18018     18015     18014     18017     18019
     18015     18014     18017     18020     18016     18014     18017     18018
     18016     18014     18017     18019     18016     18014     18017     18020
     18017     18020     18023     18024     18017     18020     18023     18025
     18017     18020     18023     18026     18018     18017     18020     18021
     18018     18017     18020     18022     18018     18017     18020     18023
     18019     18017     18020     18021     18019     18017     18020     18022
     18019     18017     18020     18023     18020     18023     18026     18027
     18020     18023     18026     18028     18020     18023     18026     18029
     18021     18020     18023     18024     18021     18020     18023     18025
     18021     18020     18023     18026     18022     18020     18023     18024
     18022     18020     18023     18025     18022     18020     18023     18026
     18023     18026     18029     18030     18023     18026     18029     18031
     18023     18026     18029     18032     18024     18023     18026     18027
     18024     18023     18026     18028     18024     18023     18026     18029
     18025     18023     18026     18027     18025     18023     18026     18028
     18025     18023     18026     18029     18027     18026     18029     18030
     18027     18026     18029     18031     18027     18026     18029     18032
     18028     18026     18029     18030     18028     18026     18029     18031
     18028     18026     18029     18032     18033     18037     18040     18041
     18033     18037     18040     18071     18033     18079     18076     18071
     18033     18079     18076     18077     18033     18079     18076     18078
     18034     18033     18035     18036     18034     18033     18037     18038
     18034     18033     18037     18039     18034     18033     18037     18040
     18034     18033     18079     18076     18034     18033     18079     18080
     18034     18033     18079     18081     18035     18033     18037     18038
     18035     18033     18037     18039     18035     18033     18037     18040
     18035     18033     18079     18076     18035     18033     18079     18080
     18035     18033     18079     18081     18036     18035     18033     18037
     18036     18035     18033     18079     18037     18033     18079     18076
     18037     18033     18079     18080     18037     18033     18079     18081
     18037     18040     18041     18042     18037     18040     18041     18043
     18037     18040     18071     18069     18037     18040     18071     18072
     18037     18040     18071     18076     18038     18037     18033     18079
     18038     18037     18040     18041     18038     18037     18040     18071
     18039     18037     18033     18079     18039     18037     18040     18041
     18039     18037     18040     18071     18040     18037     18033     18079
     18040     18041     18043     18044     18040     18041     18043     18045
     18040     18041     18043     18046     18040     18071     18069     18046
     18040     18071     18069     18066     18040     18071     18069     18070
     18040     18071     18072     18073     18040     18071     18072     18074
     18040     18071     18072     18075     18040     18071     18076     18077
     18040     18071     18076     18078     18040     18071     18076     18079
     18041     18040     18071     18069     18041     18040     18071     18072
     18041     18040     18071     18076     18041     18043     18046     18047
     18041     18043     18046     18048     18041     18043     18046     18069
     18042     18041     18040     18071     18042     18041     18043     18044
     18042     18041     18043     18045     18042     18041     18043     18046
     18043     18041     18040     18071     18043     18046     18048     18049
     18043     18046     18048     18050     18043     18046     18048     18058
     18043     18046     18069     18066     18043     18046     18069     18070
     18043     18046     18069     18071     18044     18043     18046     18047
     18044     18043     18046     18048     18044     18043     18046     18069
     18045     18043     18046     18047     18045     18043     18046     18048
     18045     18043     18046     18069     18046     18048     18050     18051
     18046     18048     18050     18052     18046     18048     18050     18053
     18046     18048     18058     18056     18046     18048     18058     18059
     18046     18048     18058     18063     18046     18069     18066     18063
     18046     18069     18066     18067     18046     18069     18066     18068
     18046     18069     18071     18072     18046     18069     18071     18076
     18047     18046     18048     18049     18047     18046     18048     18050
     18047     18046     18048     18058     18047     18046     18069     18066
     18047     18046     18069     18070     18047     18046     18069     18071
     18048     18046     18069     18066     18048     18046     18069     18070
     18048     18046     18069     18071     18048     18050     18053     18054
     18048     18050     18053     18055     18048     18050     18053     18056
     18048     18058     18056     18053     18048     18058     18056     18057
     18048     18058     18056     18082     18048     18058     18059     18060
     18048     18058     18059     18061     18048     18058     18059     18062
     18048     18058     18063     18064     18048     18058     18063     18065
     18048     18058     18063     18066     18049     18048     18046     18069
     18049     18048     18050     18051     18049     18048     18050     18052
     18049     18048     18050     18053     18049     18048     18058     18056
     18049     18048     18058     18059     18049     18048     18058     18063
     18050     18048     18046     18069     18050     18048     18058     18056
     18050     18048     18058     18059     18050     18048     18058     18063
     18050     18053     18056     18057     18050     18053     18056     18058
     18050     18053     18056     18082     18051     18050     18048     18058
     18051     18050     18053     18054     18051     18050     18053     18055
     18051     18050     18053     18056     18052     18050     18048     18058
     18052     18050     18053     18054     18052     18050     18053     18055
     18052     18050     18053     18056     18053     18050     18048     18058
     18053     18056     18058     18059     18053     18056     18058     18063
     18053     18056     18082     18083     18053     18056     18082     18084
     18053     18056     18082     18088     18054     18053     18056     18057
     18054     18053     18056     18058     18054     18053     18056     18082
     18055     18053     18056     18057     18055     18053     18056     18058
     18055     18053     18056     18082     18056     18058     18059     18060
     18056     18058     18059     18061     18056     18058     18059     18062
     18056     18058     18063     18064     18056     18058     18063     18065
     18056     18058     18063     18066     18056     18082     18084     18085
     18056     18082     18084     18086     18056     18082     18084     18087
     18056     18082     18088     18089     18056     18082     18088     18090
     18056     18082     18088     18091     18057     18056     18058     18059
     18057     18056     18058     18063     18057     18056     18082     18083
     18057     18056     18082     18084     18057     18056     18082     18088
     18058     18048     18046     18069     18058     18056     18082     18083
     18058     18056     18082     18084     18058     18056     18082     18088
     18058     18063     18066     18067     18058     18063     18066     18068
     18058     18063     18066     18069     18059     18058     18056     18082
     18059     18058     18063     18064     18059     18058     18063     18065
     18059     18058     18063     18066     18060     18059     18058     18063
     18061     18059     18058     18063     18062     18059     18058     18063
     18063     18058     18056     18082     18063     18066     18069     18070
     18063     18066     18069     18071     18064     18063     18066     18067
     18064     18063     18066     18068     18064     18063     18066     18069
     18065     18063     18066     18067     18065     18063     18066     18068
     18065     18063     18066     18069     18066     18069     18071     18072
     18066     18069     18071     18076     18067     18066     18069     18070
     18067     18066     18069     18071     18068     18066     18069     18070
     18068     18066     18069     18071     18069     18071     18072     18073
     18069     18071     18072     18074     18069     18071     18072     18075
     18069     18071     18076     18077     18069     18071     18076     18078
     18069     18071     18076     18079     18070     18069     18071     18072
     18070     18069     18071     18076     18071     18076     18079     18080
     18071     18076     18079     18081     18072     18071     18076     18077
     18072     18071     18076     18078     18072     18071     18076     18079
     18073     18072     18071     18076     18074     18072     18071     18076
     18075     18072     18071     18076     18077     18076     18079     18080
     18077     18076     18079     18081     18078     18076     18079     18080
     18078     18076     18079     18081     18082     18088     18091     18092
     18082     18088     18091     18093     18082     18088     18091     18094
     18083     18082     18084     18085     18083     18082     18084     18086
     18083     18082     18084     18087     18083     18082     18088     18089
     18083     18082     18088     18090     18083     18082     18088     18091
     18084     18082     18088     18089     18084     18082     18088     18090
     18084     18082     18088     18091     18085     18084     18082     18088
     18086     18084     18082     18088     18087     18084     18082     18088
     18088     18091     18094     18095     18088     18091     18094     18096
     18088     18091     18094     18097     18089     18088     18091     18092
     18089     18088     18091     18093     18089     18088     18091     18094
     18090     18088     18091     18092     18090     18088     18091     18093
     18090     18088     18091     18094     18091     18094     18097     18098
     18091     18094     18097     18099     18091     18094     18097     18103
     18092     18091     18094     18095     18092     18091     18094     18096
     18092     18091     18094     18097     18093     18091     18094     18095
     18093     18091     18094     18096     18093     18091     18094     18097
     18094     18097     18099     18100     18094     18097     18099     18101
     18094     18097     18099     18102     18094     18097     18103     18104
     18094     18097     18103     18105     18094     18097     18103     18106
     18095     18094     18097     18098     18095     18094     18097     18099
     18095     18094     18097     18103     18096     18094     18097     18098
     18096     18094     18097     18099     18096     18094     18097     18103
     18098     18097     18099     18100     18098     18097     18099     18101
     18098     18097     18099     18102     18098     18097     18103     18104
     18098     18097     18103     18105     18098     18097     18103     18106
     18099     18097     18103     18104     18099     18097     18103     18105
     18099     18097     18103     18106     18100     18099     18097     18103
     18101     18099     18097     18103     18102     18099     18097     18103
     18107     18120     18123     18124     18107     18120     18123     18125
     18107     18120     18123     18129     18108     18107     18112     18113
     18108     18107     18112     18114     18108     18107     18112     18115
     18108     18107     18116     18117     18108     18107     18116     18118
     18108     18107     18116     18119     18108     18107     18120     18121
     18108     18107     18120     18122     18108     18107     18120     18123
     18109     18108     18107     18112     18109     18108     18107     18116
     18109     18108     18107     18120     18110     18108     18107     18112
     18110     18108     18107     18116     18110     18108     18107     18120
     18111     18108     18107     18112     18111     18108     18107     18116
     18111     18108     18107     18120     18112     18107     18116     18117
     18112     18107     18116     18118     18112     18107     18116     18119
     18112     18107     18120     18121     18112     18107     18120     18122
     18112     18107     18120     18123     18113     18112     18107     18116
     18113     18112     18107     18120     18114     18112     18107     18116
     18114     18112     18107     18120     18115     18112     18107     18116
     18115     18112     18107     18120     18116     18107     18120     18121
     18116     18107     18120     18122     18116     18107     18120     18123
     18117     18116     18107     18120     18118     18116     18107     18120
     18119     18116     18107     18120     18120     18123     18129     18126
     18121     18120     18123     18124     18121     18120     18123     18125
     18121     18120     18123     18129     18122     18120     18123     18124
     18122     18120     18123     18125     18122     18120     18123     18129
     18123     18129     18126     18127     18123     18129     18126     18128
     18123     18129     18126     18130     18124     18123     18129     18126
     18125     18123     18129     18126     18126     18130     18131     18132
     18126     18130     18131     18133     18126     18130     18131     18134
     18127     18126     18130     18131     18128     18126     18130     18131
     18129     18126     18130     18131     18130     18131     18134     18135
     18130     18131     18134     18136     18130     18131     18134     18142
     18131     18134     18136     18137     18131     18134     18142     18143
     18131     18134     18142     18144     18131     18134     18142     18145
     18132     18131     18134     18135     18132     18131     18134     18136
     18132     18131     18134     18142     18133     18131     18134     18135
     18133     18131     18134     18136     18133     18131     18134     18142
     18134     18136     18137     18138     18134     18136     18137     18139
     18134     18142     18145     18146     18135     18134     18136     18137
     18135     18134     18142     18143     18135     18134     18142     18144
     18135     18134     18142     18145     18136     18134     18142     18143
     18136     18134     18142     18144     18136     18134     18142     18145
     18136     18137     18139     18140     18136     18137     18139     18141
     18136     18137     18139     18151     18137     18136     18134     18142
     18137     18139     18151     18152     18137     18139     18151     18153
     18137     18139     18151     18154     18138     18137     18139     18140
     18138     18137     18139     18141     18138     18137     18139     18151
     18139     18151     18154     18155     18139     18151     18154     18156
     18139     18151     18154     18157     18140     18139     18151     18152
     18140     18139     18151     18153     18140     18139     18151     18154
     18141     18139     18151     18152     18141     18139     18151     18153
     18141     18139     18151     18154     18142     18145     18146     18147
     18142     18145     18146     18148     18143     18142     18145     18146
     18144     18142     18145     18146     18145     18146     18148     18149
     18145     18146     18148     18150     18145     18146     18148     18196
     18146     18148     18196     18197     18146     18148     18196     18198
     18146     18148     18196     18199     18147     18146     18148     18149
     18147     18146     18148     18150     18147     18146     18148     18196
     18148     18196     18199     18200     18148     18196     18199     18201
     18148     18196     18199     18202     18149     18148     18196     18197
     18149     18148     18196     18198     18149     18148     18196     18199
     18150     18148     18196     18197     18150     18148     18196     18198
     18150     18148     18196     18199     18151     18154     18157     18158
     18151     18154     18157     18159     18151     18154     18157     18160
     18152     18151     18154     18155     18152     18151     18154     18156
     18152     18151     18154     18157     18153     18151     18154     18155
     18153     18151     18154     18156     18153     18151     18154     18157
     18154     18157     18160     18161     18154     18157     18160     18162
     18154     18157     18160     18163     18155     18154     18157     18158
     18155     18154     18157     18159     18155     18154     18157     18160
     18156     18154     18157     18158     18156     18154     18157     18159
     18156     18154     18157     18160     18157     18160     18163     18164
     18157     18160     18163     18165     18157     18160     18163     18166
     18158     18157     18160     18161     18158     18157     18160     18162
     18158     18157     18160     18163     18159     18157     18160     18161
     18159     18157     18160     18162     18159     18157     18160     18163
     18160     18163     18166     18167     18160     18163     18166     18168
     18160     18163     18166     18169     18161     18160     18163     18164
     18161     18160     18163     18165     18161     18160     18163     18166
     18162     18160     18163     18164     18162     18160     18163     18165
     18162     18160     18163     18166     18163     18166     18169     18170
     18163     18166     18169     18171     18164     18163     18166     18167
     18164     18163     18166     18168     18164     18163     18166     18169
     18165     18163     18166     18167     18165     18163     18166     18168
     18165     18163     18166     18169     18166     18169     18171     18172
     18166     18169     18171     18173     18167     18166     18169     18170
     18167     18166     18169     18171     18168     18166     18169     18170
     18168     18166     18169     18171     18169     18171     18173     18174
     18169     18171     18173     18175     18169     18171     18173     18176
     18170     18169     18171     18172     18170     18169     18171     18173
     18171     18173     18176     18177     18171     18173     18176     18178
     18172     18171     18173     18174     18172     18171     18173     18175
     18172     18171     18173     18176     18173     18176     18178     18179
     18173     18176     18178     18180     18174     18173     18176     18177
     18174     18173     18176     18178     18175     18173     18176     18177
     18175     18173     18176     18178     18176     18178     18180     18181
     18176     18178     18180     18182     18176     18178     18180     18183
     18177     18176     18178     18179     18177     18176     18178     18180
     18178     18180     18183     18184     18178     18180     18183     18185
     18178     18180     18183     18186     18179     18178     18180     18181
     18179     18178     18180     18182     18179     18178     18180     18183
     18180     18183     18186     18187     18180     18183     18186     18188
     18180     18183     18186     18189     18181     18180     18183     18184
     18181     18180     18183     18185     18181     18180     18183     18186
     18182     18180     18183     18184     18182     18180     18183     18185
     18182     18180     18183     18186     18183     18186     18189     18190
     18183     18186     18189     18191     18183     18186     18189     18192
     18184     18183     18186     18187     18184     18183     18186     18188
     18184     18183     18186     18189     18185     18183     18186     18187
     18185     18183     18186     18188     18185     18183     18186     18189
     18186     18189     18192     18193     18186     18189     18192     18194
     18186     18189     18192     18195     18187     18186     18189     18190
     18187     18186     18189     18191     18187     18186     18189     18192
     18188     18186     18189     18190     18188     18186     18189     18191
     18188     18186     18189     18192     18190     18189     18192     18193
     18190     18189     18192     18194     18190     18189     18192     18195
     18191     18189     18192     18193     18191     18189     18192     18194
     18191     18189     18192     18195     18196     18199     18202     18203
     18196     18199     18202     18204     18196     18199     18202     18205
     18197     18196     18199     18200     18197     18196     18199     18201
     18197     18196     18199     18202     18198     18196     18199     18200
     18198     18196     18199     18201     18198     18196     18199     18202
     18199     18202     18205     18206     18199     18202     18205     18207
     18199     18202     18205     18208     18200     18199     18202     18203
     18200     18199     18202     18204     18200     18199     18202     18205
     18201     18199     18202     18203     18201     18199     18202     18204
     18201     18199     18202     18205     18202     18205     18208     18209
     18202     18205     18208     18210     18202     18205     18208     18211
     18203     18202     18205     18206     18203     18202     18205     18207
     18203     18202     18205     18208     18204     18202     18205     18206
     18204     18202     18205     18207     18204     18202     18205     18208
     18205     18208     18211     18212     18205     18208     18211     18213
     18205     18208     18211     18214     18206     18205     18208     18209
     18206     18205     18208     18210     18206     18205     18208     18211
     18207     18205     18208     18209     18207     18205     18208     18210
     18207     18205     18208     18211     18208     18211     18214     18215
     18208     18211     18214     18216     18208     18211     18214     18217
     18209     18208     18211     18212     18209     18208     18211     18213
     18209     18208     18211     18214     18210     18208     18211     18212
     18210     18208     18211     18213     18210     18208     18211     18214
     18211     18214     18217     18218     18211     18214     18217     18219
     18211     18214     18217     18220     18212     18211     18214     18215
     18212     18211     18214     18216     18212     18211     18214     18217
     18213     18211     18214     18215     18213     18211     18214     18216
     18213     18211     18214     18217     18214     18217     18220     18221
     18214     18217     18220     18222     18214     18217     18220     18223
     18215     18214     18217     18218     18215     18214     18217     18219
     18215     18214     18217     18220     18216     18214     18217     18218
     18216     18214     18217     18219     18216     18214     18217     18220
     18217     18220     18223     18224     18217     18220     18223     18225
     18217     18220     18223     18226     18218     18217     18220     18221
     18218     18217     18220     18222     18218     18217     18220     18223
     18219     18217     18220     18221     18219     18217     18220     18222
     18219     18217     18220     18223     18220     18223     18226     18227
     18220     18223     18226     18228     18220     18223     18226     18229
     18221     18220     18223     18224     18221     18220     18223     18225
     18221     18220     18223     18226     18222     18220     18223     18224
     18222     18220     18223     18225     18222     18220     18223     18226
     18223     18226     18229     18230     18223     18226     18229     18231
     18223     18226     18229     18232     18224     18223     18226     18227
     18224     18223     18226     18228     18224     18223     18226     18229
     18225     18223     18226     18227     18225     18223     18226     18228
     18225     18223     18226     18229     18226     18229     18232     18233
     18226     18229     18232     18234     18226     18229     18232     18235
     18227     18226     18229     18230     18227     18226     18229     18231
     18227     18226     18229     18232     18228     18226     18229     18230
     18228     18226     18229     18231     18228     18226     18229     18232
     18229     18232     18235     18236     18229     18232     18235     18237
     18229     18232     18235     18238     18230     18229     18232     18233
     18230     18229     18232     18234     18230     18229     18232     18235
     18231     18229     18232     18233     18231     18229     18232     18234
     18231     18229     18232     18235     18232     18235     18238     18239
     18232     18235     18238     18240     18232     18235     18238     18241
     18233     18232     18235     18236     18233     18232     18235     18237
     18233     18232     18235     18238     18234     18232     18235     18236
     18234     18232     18235     18237     18234     18232     18235     18238
     18235     18238     18241     18242     18235     18238     18241     18243
     18235     18238     18241     18244     18236     18235     18238     18239
     18236     18235     18238     18240     18236     18235     18238     18241
     18237     18235     18238     18239     18237     18235     18238     18240
     18237     18235     18238     18241     18239     18238     18241     18242
     18239     18238     18241     18243     18239     18238     18241     18244
     18240     18238     18241     18242     18240     18238     18241     18243
     18240     18238     18241     18244     18245     18249     18252     18253
     18245     18249     18252     18254     18245     18249     18252     18258
     18246     18245     18249     18250     18246     18245     18249     18251
     18246     18245     18249     18252     18247     18245     18249     18250
     18247     18245     18249     18251     18247     18245     18249     18252
     18248     18245     18249     18250     18248     18245     18249     18251
     18248     18245     18249     18252     18249     18252     18258     18255
     18250     18249     18252     18253     18250     18249     18252     18254
     18250     18249     18252     18258     18251     18249     18252     18253
     18251     18249     18252     18254     18251     18249     18252     18258
     18252     18258     18255     18256     18252     18258     18255     18257
     18252     18258     18255     18259     18253     18252     18258     18255
     18254     18252     18258     18255     18255     18259     18260     18261
     18255     18259     18260     18262     18255     18259     18260     18263
     18256     18255     18259     18260     18257     18255     18259     18260
     18258     18255     18259     18260     18259     18260     18263     18264
     18259     18260     18263     18265     18259     18260     18263     18271
     18260     18263     18265     18266     18260     18263     18271     18272
     18260     18263     18271     18273     18260     18263     18271     18274
     18261     18260     18263     18264     18261     18260     18263     18265
     18261     18260     18263     18271     18262     18260     18263     18264
     18262     18260     18263     18265     18262     18260     18263     18271
     18263     18265     18266     18267     18263     18265     18266     18268
     18263     18271     18274     18275     18264     18263     18265     18266
     18264     18263     18271     18272     18264     18263     18271     18273
     18264     18263     18271     18274     18265     18263     18271     18272
     18265     18263     18271     18273     18265     18263     18271     18274
     18265     18266     18268     18269     18265     18266     18268     18270
     18265     18266     18268     18280     18266     18265     18263     18271
     18266     18268     18280     18281     18266     18268     18280     18282
     18266     18268     18280     18283     18267     18266     18268     18269
     18267     18266     18268     18270     18267     18266     18268     18280
     18268     18280     18283     18284     18268     18280     18283     18285
     18268     18280     18283     18286     18269     18268     18280     18281
     18269     18268     18280     18282     18269     18268     18280     18283
     18270     18268     18280     18281     18270     18268     18280     18282
     18270     18268     18280     18283     18271     18274     18275     18276
     18271     18274     18275     18277     18272     18271     18274     18275
     18273     18271     18274     18275     18274     18275     18277     18278
     18274     18275     18277     18279     18274     18275     18277     18327
     18275     18277     18327     18328     18275     18277     18327     18329
     18275     18277     18327     18330     18276     18275     18277     18278
     18276     18275     18277     18279     18276     18275     18277     18327
     18277     18327     18330     18331     18277     18327     18330     18332
     18277     18327     18330     18333     18278     18277     18327     18328
     18278     18277     18327     18329     18278     18277     18327     18330
     18279     18277     18327     18328     18279     18277     18327     18329
     18279     18277     18327     18330     18280     18283     18286     18287
     18280     18283     18286     18288     18280     18283     18286     18289
     18281     18280     18283     18284     18281     18280     18283     18285
     18281     18280     18283     18286     18282     18280     18283     18284
     18282     18280     18283     18285     18282     18280     18283     18286
     18283     18286     18289     18290     18283     18286     18289     18291
     18283     18286     18289     18292     18284     18283     18286     18287
     18284     18283     18286     18288     18284     18283     18286     18289
     18285     18283     18286     18287     18285     18283     18286     18288
     18285     18283     18286     18289     18286     18289     18292     18293
     18286     18289     18292     18294     18286     18289     18292     18295
     18287     18286     18289     18290     18287     18286     18289     18291
     18287     18286     18289     18292     18288     18286     18289     18290
     18288     18286     18289     18291     18288     18286     18289     18292
     18289     18292     18295     18296     18289     18292     18295     18297
     18289     18292     18295     18298     18290     18289     18292     18293
     18290     18289     18292     18294     18290     18289     18292     18295
     18291     18289     18292     18293     18291     18289     18292     18294
     18291     18289     18292     18295     18292     18295     18298     18299
     18292     18295     18298     18300     18293     18292     18295     18296
     18293     18292     18295     18297     18293     18292     18295     18298
     18294     18292     18295     18296     18294     18292     18295     18297
     18294     18292     18295     18298     18295     18298     18300     18301
     18295     18298     18300     18302     18296     18295     18298     18299
     18296     18295     18298     18300     18297     18295     18298     18299
     18297     18295     18298     18300     18298     18300     18302     18303
     18298     18300     18302     18304     18298     18300     18302     18305
     18299     18298     18300     18301     18299     18298     18300     18302
     18300     18302     18305     18306     18300     18302     18305     18307
     18300     18302     18305     18308     18301     18300     18302     18303
     18301     18300     18302     18304     18301     18300     18302     18305
     18302     18305     18308     18309     18302     18305     18308     18310
     18302     18305     18308     18311     18303     18302     18305     18306
     18303     18302     18305     18307     18303     18302     18305     18308
     18304     18302     18305     18306     18304     18302     18305     18307
     18304     18302     18305     18308     18305     18308     18311     18312
     18305     18308     18311     18313     18305     18308     18311     18314
     18306     18305     18308     18309     18306     18305     18308     18310
     18306     18305     18308     18311     18307     18305     18308     18309
     18307     18305     18308     18310     18307     18305     18308     18311
     18308     18311     18314     18315     18308     18311     18314     18316
     18308     18311     18314     18317     18309     18308     18311     18312
     18309     18308     18311     18313     18309     18308     18311     18314
     18310     18308     18311     18312     18310     18308     18311     18313
     18310     18308     18311     18314     18311     18314     18317     18318
     18311     18314     18317     18319     18311     18314     18317     18320
     18312     18311     18314     18315     18312     18311     18314     18316
     18312     18311     18314     18317     18313     18311     18314     18315
     18313     18311     18314     18316     18313     18311     18314     18317
     18314     18317     18320     18321     18314     18317     18320     18322
     18314     18317     18320     18323     18315     18314     18317     18318
     18315     18314     18317     18319     18315     18314     18317     18320
     18316     18314     18317     18318     18316     18314     18317     18319
     18316     18314     18317     18320     18317     18320     18323     18324
     18317     18320     18323     18325     18317     18320     18323     18326
     18318     18317     18320     18321     18318     18317     18320     18322
     18318     18317     18320     18323     18319     18317     18320     18321
     18319     18317     18320     18322     18319     18317     18320     18323
     18321     18320     18323     18324     18321     18320     18323     18325
     18321     18320     18323     18326     18322     18320     18323     18324
     18322     18320     18323     18325     18322     18320     18323     18326
     18327     18330     18333     18334     18327     18330     18333     18335
     18327     18330     18333     18336     18328     18327     18330     18331
     18328     18327     18330     18332     18328     18327     18330     18333
     18329     18327     18330     18331     18329     18327     18330     18332
     18329     18327     18330     18333     18330     18333     18336     18337
     18330     18333     18336     18338     18330     18333     18336     18339
     18331     18330     18333     18334     18331     18330     18333     18335
     18331     18330     18333     18336     18332     18330     18333     18334
     18332     18330     18333     18335     18332     18330     18333     18336
     18333     18336     18339     18340     18333     18336     18339     18341
     18333     18336     18339     18342     18334     18333     18336     18337
     18334     18333     18336     18338     18334     18333     18336     18339
     18335     18333     18336     18337     18335     18333     18336     18338
     18335     18333     18336     18339     18336     18339     18342     18343
     18336     18339     18342     18344     18336     18339     18342     18345
     18337     18336     18339     18340     18337     18336     18339     18341
     18337     18336     18339     18342     18338     18336     18339     18340
     18338     18336     18339     18341     18338     18336     18339     18342
     18339     18342     18345     18346     18339     18342     18345     18347
     18339     18342     18345     18348     18340     18339     18342     18343
     18340     18339     18342     18344     18340     18339     18342     18345
     18341     18339     18342     18343     18341     18339     18342     18344
     18341     18339     18342     18345     18342     18345     18348     18349
     18342     18345     18348     18350     18342     18345     18348     18351
     18343     18342     18345     18346     18343     18342     18345     18347
     18343     18342     18345     18348     18344     18342     18345     18346
     18344     18342     18345     18347     18344     18342     18345     18348
     18345     18348     18351     18352     18345     18348     18351     18353
     18345     18348     18351     18354     18346     18345     18348     18349
     18346     18345     18348     18350     18346     18345     18348     18351
     18347     18345     18348     18349     18347     18345     18348     18350
     18347     18345     18348     18351     18348     18351     18354     18355
     18348     18351     18354     18356     18348     18351     18354     18357
     18349     18348     18351     18352     18349     18348     18351     18353
     18349     18348     18351     18354     18350     18348     18351     18352
     18350     18348     18351     18353     18350     18348     18351     18354
     18351     18354     18357     18358     18351     18354     18357     18359
     18351     18354     18357     18360     18352     18351     18354     18355
     18352     18351     18354     18356     18352     18351     18354     18357
     18353     18351     18354     18355     18353     18351     18354     18356
     18353     18351     18354     18357     18354     18357     18360     18361
     18354     18357     18360     18362     18354     18357     18360     18363
     18355     18354     18357     18358     18355     18354     18357     18359
     18355     18354     18357     18360     18356     18354     18357     18358
     18356     18354     18357     18359     18356     18354     18357     18360
     18357     18360     18363     18364     18357     18360     18363     18365
     18357     18360     18363     18366     18358     18357     18360     18361
     18358     18357     18360     18362     18358     18357     18360     18363
     18359     18357     18360     18361     18359     18357     18360     18362
     18359     18357     18360     18363     18360     18363     18366     18367
     18360     18363     18366     18368     18360     18363     18366     18369
     18361     18360     18363     18364     18361     18360     18363     18365
     18361     18360     18363     18366     18362     18360     18363     18364
     18362     18360     18363     18365     18362     18360     18363     18366
     18363     18366     18369     18370     18363     18366     18369     18371
     18363     18366     18369     18372     18364     18363     18366     18367
     18364     18363     18366     18368     18364     18363     18366     18369
     18365     18363     18366     18367     18365     18363     18366     18368
     18365     18363     18366     18369     18366     18369     18372     18373
     18366     18369     18372     18374     18366     18369     18372     18375
     18367     18366     18369     18370     18367     18366     18369     18371
     18367     18366     18369     18372     18368     18366     18369     18370
     18368     18366     18369     18371     18368     18366     18369     18372
     18370     18369     18372     18373     18370     18369     18372     18374
     18370     18369     18372     18375     18371     18369     18372     18373
     18371     18369     18372     18374     18371     18369     18372     18375
     18376     18380     18382     18383     18376     18380     18384     18385
     18376     18380     18384     18386     18376     18380     18384     18388
     18376     18396     18392     18388     18376     18396     18392     18393
     18376     18396     18392     18394     18376     18396     18401     18398
     18377     18376     18378     18379     18377     18376     18380     18381
     18377     18376     18380     18382     18377     18376     18380     18384
     18377     18376     18396     18392     18377     18376     18396     18397
     18377     18376     18396     18401     18378     18376     18380     18381
     18378     18376     18380     18382     18378     18376     18380     18384
     18378     18376     18396     18392     18378     18376     18396     18397
     18378     18376     18396     18401     18379     18378     18376     18380
     18379     18378     18376     18396     18380     18376     18396     18392
     18380     18376     18396     18397     18380     18376     18396     18401
     18380     18384     18386     18387     18380     18384     18388     18389
     18380     18384     18388     18390     18380     18384     18388     18392
     18381     18380     18376     18396     18381     18380     18382     18383
     18381     18380     18384     18385     18381     18380     18384     18386
     18381     18380     18384     18388     18382     18380     18376     18396
     18382     18380     18384     18385     18382     18380     18384     18386
     18382     18380     18384     18388     18383     18382     18380     18384
     18384     18380     18376     18396     18384     18388     18390     18391
     18384     18388     18392     18393     18384     18388     18392     18394
     18384     18388     18392     18396     18385     18384     18386     18387
     18385     18384     18388     18389     18385     18384     18388     18390
     18385     18384     18388     18392     18386     18384     18388     18389
     18386     18384     18388     18390     18386     18384     18388     18392
     18387     18386     18384     18388     18388     18392     18394     18395
     18388     18392     18396     18397     18388     18392     18396     18401
     18389     18388     18390     18391     18389     18388     18392     18393
     18389     18388     18392     18394     18389     18388     18392     18396
     18390     18388     18392     18393     18390     18388     18392     18394
     18390     18388     18392     18396     18391     18390     18388     18392
     18392     18396     18401     18398     18393     18392     18394     18395
     18393     18392     18396     18397     18393     18392     18396     18401
     18394     18392     18396     18397     18394     18392     18396     18401
     18395     18394     18392     18396     18396     18401     18398     18399
     18396     18401     18398     18400     18396     18401     18398     18402
     18397     18396     18401     18398     18398     18402     18403     18404
     18398     18402     18403     18405     18398     18402     18403     18406
     18399     18398     18402     18403     18400     18398     18402     18403
     18401     18398     18402     18403     18402     18403     18406     18407
     18402     18403     18406     18408     18402     18403     18406     18414
     18403     18406     18408     18409     18403     18406     18414     18415
     18403     18406     18414     18416     18403     18406     18414     18417
     18404     18403     18406     18407     18404     18403     18406     18408
     18404     18403     18406     18414     18405     18403     18406     18407
     18405     18403     18406     18408     18405     18403     18406     18414
     18406     18408     18409     18410     18406     18408     18409     18411
     18406     18414     18417     18418     18407     18406     18408     18409
     18407     18406     18414     18415     18407     18406     18414     18416
     18407     18406     18414     18417     18408     18406     18414     18415
     18408     18406     18414     18416     18408     18406     18414     18417
     18408     18409     18411     18412     18408     18409     18411     18413
     18408     18409     18411     18423     18409     18408     18406     18414
     18409     18411     18423     18424     18409     18411     18423     18425
     18409     18411     18423     18426     18410     18409     18411     18412
     18410     18409     18411     18413     18410     18409     18411     18423
     18411     18423     18426     18427     18411     18423     18426     18428
     18411     18423     18426     18429     18412     18411     18423     18424
     18412     18411     18423     18425     18412     18411     18423     18426
     18413     18411     18423     18424     18413     18411     18423     18425
     18413     18411     18423     18426     18414     18417     18418     18419
     18414     18417     18418     18420     18415     18414     18417     18418
     18416     18414     18417     18418     18417     18418     18420     18421
     18417     18418     18420     18422     18417     18418     18420     18470
     18418     18420     18470     18471     18418     18420     18470     18472
     18418     18420     18470     18473     18419     18418     18420     18421
     18419     18418     18420     18422     18419     18418     18420     18470
     18420     18470     18473     18474     18420     18470     18473     18475
     18420     18470     18473     18476     18421     18420     18470     18471
     18421     18420     18470     18472     18421     18420     18470     18473
     18422     18420     18470     18471     18422     18420     18470     18472
     18422     18420     18470     18473     18423     18426     18429     18430
     18423     18426     18429     18431     18424     18423     18426     18427
     18424     18423     18426     18428     18424     18423     18426     18429
     18425     18423     18426     18427     18425     18423     18426     18428
     18425     18423     18426     18429     18426     18429     18431     18432
     18426     18429     18431     18433     18427     18426     18429     18430
     18427     18426     18429     18431     18428     18426     18429     18430
     18428     18426     18429     18431     18429     18431     18433     18434
     18429     18431     18433     18435     18429     18431     18433     18436
     18430     18429     18431     18432     18430     18429     18431     18433
     18431     18433     18436     18437     18431     18433     18436     18438
     18432     18431     18433     18434     18432     18431     18433     18435
     18432     18431     18433     18436     18433     18436     18438     18439
     18433     18436     18438     18440     18434     18433     18436     18437
     18434     18433     18436     18438     18435     18433     18436     18437
     18435     18433     18436     18438     18436     18438     18440     18441
     18436     18438     18440     18442     18436     18438     18440     18443
     18437     18436     18438     18439     18437     18436     18438     18440
     18438     18440     18443     18444     18438     18440     18443     18445
     18439     18438     18440     18441     18439     18438     18440     18442
     18439     18438     18440     18443     18440     18443     18445     18446
     18440     18443     18445     18447     18441     18440     18443     18444
     18441     18440     18443     18445     18442     18440     18443     18444
     18442     18440     18443     18445     18443     18445     18447     18448
     18443     18445     18447     18449     18443     18445     18447     18450
     18444     18443     18445     18446     18444     18443     18445     18447
     18445     18447     18450     18451     18445     18447     18450     18452
     18446     18445     18447     18448     18446     18445     18447     18449
     18446     18445     18447     18450     18447     18450     18452     18453
     18447     18450     18452     18454     18448     18447     18450     18451
     18448     18447     18450     18452     18449     18447     18450     18451
     18449     18447     18450     18452     18450     18452     18454     18455
     18450     18452     18454     18456     18450     18452     18454     18457
     18451     18450     18452     18453     18451     18450     18452     18454
     18452     18454     18457     18458     18452     18454     18457     18459
     18452     18454     18457     18460     18453     18452     18454     18455
     18453     18452     18454     18456     18453     18452     18454     18457
     18454     18457     18460     18461     18454     18457     18460     18462
     18454     18457     18460     18463     18455     18454     18457     18458
     18455     18454     18457     18459     18455     18454     18457     18460
     18456     18454     18457     18458     18456     18454     18457     18459
     18456     18454     18457     18460     18457     18460     18463     18464
     18457     18460     18463     18465     18457     18460     18463     18466
     18458     18457     18460     18461     18458     18457     18460     18462
     18458     18457     18460     18463     18459     18457     18460     18461
     18459     18457     18460     18462     18459     18457     18460     18463
     18460     18463     18466     18467     18460     18463     18466     18468
     18460     18463     18466     18469     18461     18460     18463     18464
     18461     18460     18463     18465     18461     18460     18463     18466
     18462     18460     18463     18464     18462     18460     18463     18465
     18462     18460     18463     18466     18464     18463     18466     18467
     18464     18463     18466     18468     18464     18463     18466     18469
     18465     18463     18466     18467     18465     18463     18466     18468
     18465     18463     18466     18469     18470     18473     18476     18477
     18470     18473     18476     18478     18470     18473     18476     18479
     18471     18470     18473     18474     18471     18470     18473     18475
     18471     18470     18473     18476     18472     18470     18473     18474
     18472     18470     18473     18475     18472     18470     18473     18476
     18473     18476     18479     18480     18473     18476     18479     18481
     18473     18476     18479     18482     18474     18473     18476     18477
     18474     18473     18476     18478     18474     18473     18476     18479
     18475     18473     18476     18477     18475     18473     18476     18478
     18475     18473     18476     18479     18476     18479     18482     18483
     18476     18479     18482     18484     18476     18479     18482     18485
     18477     18476     18479     18480     18477     18476     18479     18481
     18477     18476     18479     18482     18478     18476     18479     18480
     18478     18476     18479     18481     18478     18476     18479     18482
     18479     18482     18485     18486     18479     18482     18485     18487
     18479     18482     18485     18488     18480     18479     18482     18483
     18480     18479     18482     18484     18480     18479     18482     18485
     18481     18479     18482     18483     18481     18479     18482     18484
     18481     18479     18482     18485     18482     18485     18488     18489
     18482     18485     18488     18490     18482     18485     18488     18491
     18483     18482     18485     18486     18483     18482     18485     18487
     18483     18482     18485     18488     18484     18482     18485     18486
     18484     18482     18485     18487     18484     18482     18485     18488
     18485     18488     18491     18492     18485     18488     18491     18493
     18485     18488     18491     18494     18486     18485     18488     18489
     18486     18485     18488     18490     18486     18485     18488     18491
     18487     18485     18488     18489     18487     18485     18488     18490
     18487     18485     18488     18491     18488     18491     18494     18495
     18488     18491     18494     18496     18488     18491     18494     18497
     18489     18488     18491     18492     18489     18488     18491     18493
     18489     18488     18491     18494     18490     18488     18491     18492
     18490     18488     18491     18493     18490     18488     18491     18494
     18491     18494     18497     18498     18491     18494     18497     18499
     18491     18494     18497     18500     18492     18491     18494     18495
     18492     18491     18494     18496     18492     18491     18494     18497
     18493     18491     18494     18495     18493     18491     18494     18496
     18493     18491     18494     18497     18494     18497     18500     18501
     18494     18497     18500     18502     18494     18497     18500     18503
     18495     18494     18497     18498     18495     18494     18497     18499
     18495     18494     18497     18500     18496     18494     18497     18498
     18496     18494     18497     18499     18496     18494     18497     18500
     18497     18500     18503     18504     18497     18500     18503     18505
     18497     18500     18503     18506     18498     18497     18500     18501
     18498     18497     18500     18502     18498     18497     18500     18503
     18499     18497     18500     18501     18499     18497     18500     18502
     18499     18497     18500     18503     18500     18503     18506     18507
     18500     18503     18506     18508     18500     18503     18506     18509
     18501     18500     18503     18504     18501     18500     18503     18505
     18501     18500     18503     18506     18502     18500     18503     18504
     18502     18500     18503     18505     18502     18500     18503     18506
     18503     18506     18509     18510     18503     18506     18509     18511
     18503     18506     18509     18512     18504     18503     18506     18507
     18504     18503     18506     18508     18504     18503     18506     18509
     18505     18503     18506     18507     18505     18503     18506     18508
     18505     18503     18506     18509     18506     18509     18512     18513
     18506     18509     18512     18514     18506     18509     18512     18515
     18507     18506     18509     18510     18507     18506     18509     18511
     18507     18506     18509     18512     18508     18506     18509     18510
     18508     18506     18509     18511     18508     18506     18509     18512
     18509     18512     18515     18516     18509     18512     18515     18517
     18509     18512     18515     18518     18510     18509     18512     18513
     18510     18509     18512     18514     18510     18509     18512     18515
     18511     18509     18512     18513     18511     18509     18512     18514
     18511     18509     18512     18515     18513     18512     18515     18516
     18513     18512     18515     18517     18513     18512     18515     18518
     18514     18512     18515     18516     18514     18512     18515     18517
     18514     18512     18515     18518     18519     18523     18525     18526
     18519     18523     18527     18528     18519     18523     18527     18529
     18519     18523     18527     18531     18519     18539     18535     18531
     18519     18539     18535     18536     18519     18539     18535     18537
     18519     18539     18544     18541     18520     18519     18521     18522
     18520     18519     18523     18524     18520     18519     18523     18525
     18520     18519     18523     18527     18520     18519     18539     18535
     18520     18519     18539     18540     18520     18519     18539     18544
     18521     18519     18523     18524     18521     18519     18523     18525
     18521     18519     18523     18527     18521     18519     18539     18535
     18521     18519     18539     18540     18521     18519     18539     18544
     18522     18521     18519     18523     18522     18521     18519     18539
     18523     18519     18539     18535     18523     18519     18539     18540
     18523     18519     18539     18544     18523     18527     18529     18530
     18523     18527     18531     18532     18523     18527     18531     18533
     18523     18527     18531     18535     18524     18523     18519     18539
     18524     18523     18525     18526     18524     18523     18527     18528
     18524     18523     18527     18529     18524     18523     18527     18531
     18525     18523     18519     18539     18525     18523     18527     18528
     18525     18523     18527     18529     18525     18523     18527     18531
     18526     18525     18523     18527     18527     18523     18519     18539
     18527     18531     18533     18534     18527     18531     18535     18536
     18527     18531     18535     18537     18527     18531     18535     18539
     18528     18527     18529     18530     18528     18527     18531     18532
     18528     18527     18531     18533     18528     18527     18531     18535
     18529     18527     18531     18532     18529     18527     18531     18533
     18529     18527     18531     18535     18530     18529     18527     18531
     18531     18535     18537     18538     18531     18535     18539     18540
     18531     18535     18539     18544     18532     18531     18533     18534
     18532     18531     18535     18536     18532     18531     18535     18537
     18532     18531     18535     18539     18533     18531     18535     18536
     18533     18531     18535     18537     18533     18531     18535     18539
     18534     18533     18531     18535     18535     18539     18544     18541
     18536     18535     18537     18538     18536     18535     18539     18540
     18536     18535     18539     18544     18537     18535     18539     18540
     18537     18535     18539     18544     18538     18537     18535     18539
     18539     18544     18541     18542     18539     18544     18541     18543
     18539     18544     18541     18545     18540     18539     18544     18541
     18541     18545     18546     18547     18541     18545     18546     18548
     18541     18545     18546     18549     18542     18541     18545     18546
     18543     18541     18545     18546     18544     18541     18545     18546
     18545     18546     18549     18550     18545     18546     18549     18551
     18545     18546     18549     18557     18546     18549     18551     18552
     18546     18549     18557     18558     18546     18549     18557     18559
     18546     18549     18557     18560     18547     18546     18549     18550
     18547     18546     18549     18551     18547     18546     18549     18557
     18548     18546     18549     18550     18548     18546     18549     18551
     18548     18546     18549     18557     18549     18551     18552     18553
     18549     18551     18552     18554     18549     18557     18560     18561
     18550     18549     18551     18552     18550     18549     18557     18558
     18550     18549     18557     18559     18550     18549     18557     18560
     18551     18549     18557     18558     18551     18549     18557     18559
     18551     18549     18557     18560     18551     18552     18554     18555
     18551     18552     18554     18556     18551     18552     18554     18566
     18552     18551     18549     18557     18552     18554     18566     18567
     18552     18554     18566     18568     18552     18554     18566     18569
     18553     18552     18554     18555     18553     18552     18554     18556
     18553     18552     18554     18566     18554     18566     18569     18570
     18554     18566     18569     18571     18554     18566     18569     18572
     18555     18554     18566     18567     18555     18554     18566     18568
     18555     18554     18566     18569     18556     18554     18566     18567
     18556     18554     18566     18568     18556     18554     18566     18569
     18557     18560     18561     18562     18557     18560     18561     18563
     18558     18557     18560     18561     18559     18557     18560     18561
     18560     18561     18563     18564     18560     18561     18563     18565
     18560     18561     18563     18613     18561     18563     18613     18614
     18561     18563     18613     18615     18561     18563     18613     18616
     18562     18561     18563     18564     18562     18561     18563     18565
     18562     18561     18563     18613     18563     18613     18616     18617
     18563     18613     18616     18618     18563     18613     18616     18619
     18564     18563     18613     18614     18564     18563     18613     18615
     18564     18563     18613     18616     18565     18563     18613     18614
     18565     18563     18613     18615     18565     18563     18613     18616
     18566     18569     18572     18573     18566     18569     18572     18574
     18567     18566     18569     18570     18567     18566     18569     18571
     18567     18566     18569     18572     18568     18566     18569     18570
     18568     18566     18569     18571     18568     18566     18569     18572
     18569     18572     18574     18575     18569     18572     18574     18576
     18570     18569     18572     18573     18570     18569     18572     18574
     18571     18569     18572     18573     18571     18569     18572     18574
     18572     18574     18576     18577     18572     18574     18576     18578
     18572     18574     18576     18579     18573     18572     18574     18575
     18573     18572     18574     18576     18574     18576     18579     18580
     18574     18576     18579     18581     18575     18574     18576     18577
     18575     18574     18576     18578     18575     18574     18576     18579
     18576     18579     18581     18582     18576     18579     18581     18583
     18577     18576     18579     18580     18577     18576     18579     18581
     18578     18576     18579     18580     18578     18576     18579     18581
     18579     18581     18583     18584     18579     18581     18583     18585
     18579     18581     18583     18586     18580     18579     18581     18582
     18580     18579     18581     18583     18581     18583     18586     18587
     18581     18583     18586     18588     18582     18581     18583     18584
     18582     18581     18583     18585     18582     18581     18583     18586
     18583     18586     18588     18589     18583     18586     18588     18590
     18584     18583     18586     18587     18584     18583     18586     18588
     18585     18583     18586     18587     18585     18583     18586     18588
     18586     18588     18590     18591     18586     18588     18590     18592
     18586     18588     18590     18593     18587     18586     18588     18589
     18587     18586     18588     18590     18588     18590     18593     18594
     18588     18590     18593     18595     18589     18588     18590     18591
     18589     18588     18590     18592     18589     18588     18590     18593
     18590     18593     18595     18596     18590     18593     18595     18597
     18591     18590     18593     18594     18591     18590     18593     18595
     18592     18590     18593     18594     18592     18590     18593     18595
     18593     18595     18597     18598     18593     18595     18597     18599
     18593     18595     18597     18600     18594     18593     18595     18596
     18594     18593     18595     18597     18595     18597     18600     18601
     18595     18597     18600     18602     18595     18597     18600     18603
     18596     18595     18597     18598     18596     18595     18597     18599
     18596     18595     18597     18600     18597     18600     18603     18604
     18597     18600     18603     18605     18597     18600     18603     18606
     18598     18597     18600     18601     18598     18597     18600     18602
     18598     18597     18600     18603     18599     18597     18600     18601
     18599     18597     18600     18602     18599     18597     18600     18603
     18600     18603     18606     18607     18600     18603     18606     18608
     18600     18603     18606     18609     18601     18600     18603     18604
     18601     18600     18603     18605     18601     18600     18603     18606
     18602     18600     18603     18604     18602     18600     18603     18605
     18602     18600     18603     18606     18603     18606     18609     18610
     18603     18606     18609     18611     18603     18606     18609     18612
     18604     18603     18606     18607     18604     18603     18606     18608
     18604     18603     18606     18609     18605     18603     18606     18607
     18605     18603     18606     18608     18605     18603     18606     18609
     18607     18606     18609     18610     18607     18606     18609     18611
     18607     18606     18609     18612     18608     18606     18609     18610
     18608     18606     18609     18611     18608     18606     18609     18612
     18613     18616     18619     18620     18613     18616     18619     18621
     18613     18616     18619     18622     18614     18613     18616     18617
     18614     18613     18616     18618     18614     18613     18616     18619
     18615     18613     18616     18617     18615     18613     18616     18618
     18615     18613     18616     18619     18616     18619     18622     18623
     18616     18619     18622     18624     18616     18619     18622     18625
     18617     18616     18619     18620     18617     18616     18619     18621
     18617     18616     18619     18622     18618     18616     18619     18620
     18618     18616     18619     18621     18618     18616     18619     18622
     18619     18622     18625     18626     18619     18622     18625     18627
     18619     18622     18625     18628     18620     18619     18622     18623
     18620     18619     18622     18624     18620     18619     18622     18625
     18621     18619     18622     18623     18621     18619     18622     18624
     18621     18619     18622     18625     18622     18625     18628     18629
     18622     18625     18628     18630     18622     18625     18628     18631
     18623     18622     18625     18626     18623     18622     18625     18627
     18623     18622     18625     18628     18624     18622     18625     18626
     18624     18622     18625     18627     18624     18622     18625     18628
     18625     18628     18631     18632     18625     18628     18631     18633
     18625     18628     18631     18634     18626     18625     18628     18629
     18626     18625     18628     18630     18626     18625     18628     18631
     18627     18625     18628     18629     18627     18625     18628     18630
     18627     18625     18628     18631     18628     18631     18634     18635
     18628     18631     18634     18636     18628     18631     18634     18637
     18629     18628     18631     18632     18629     18628     18631     18633
     18629     18628     18631     18634     18630     18628     18631     18632
     18630     18628     18631     18633     18630     18628     18631     18634
     18631     18634     18637     18638     18631     18634     18637     18639
     18631     18634     18637     18640     18632     18631     18634     18635
     18632     18631     18634     18636     18632     18631     18634     18637
     18633     18631     18634     18635     18633     18631     18634     18636
     18633     18631     18634     18637     18634     18637     18640     18641
     18634     18637     18640     18642     18634     18637     18640     18643
     18635     18634     18637     18638     18635     18634     18637     18639
     18635     18634     18637     18640     18636     18634     18637     18638
     18636     18634     18637     18639     18636     18634     18637     18640
     18637     18640     18643     18644     18637     18640     18643     18645
     18637     18640     18643     18646     18638     18637     18640     18641
     18638     18637     18640     18642     18638     18637     18640     18643
     18639     18637     18640     18641     18639     18637     18640     18642
     18639     18637     18640     18643     18640     18643     18646     18647
     18640     18643     18646     18648     18640     18643     18646     18649
     18641     18640     18643     18644     18641     18640     18643     18645
     18641     18640     18643     18646     18642     18640     18643     18644
     18642     18640     18643     18645     18642     18640     18643     18646
     18643     18646     18649     18650     18643     18646     18649     18651
     18643     18646     18649     18652     18644     18643     18646     18647
     18644     18643     18646     18648     18644     18643     18646     18649
     18645     18643     18646     18647     18645     18643     18646     18648
     18645     18643     18646     18649     18646     18649     18652     18653
     18646     18649     18652     18654     18646     18649     18652     18655
     18647     18646     18649     18650     18647     18646     18649     18651
     18647     18646     18649     18652     18648     18646     18649     18650
     18648     18646     18649     18651     18648     18646     18649     18652
     18649     18652     18655     18656     18649     18652     18655     18657
     18649     18652     18655     18658     18650     18649     18652     18653
     18650     18649     18652     18654     18650     18649     18652     18655
     18651     18649     18652     18653     18651     18649     18652     18654
     18651     18649     18652     18655     18652     18655     18658     18659
     18652     18655     18658     18660     18652     18655     18658     18661
     18653     18652     18655     18656     18653     18652     18655     18657
     18653     18652     18655     18658     18654     18652     18655     18656
     18654     18652     18655     18657     18654     18652     18655     18658
     18656     18655     18658     18659     18656     18655     18658     18660
     18656     18655     18658     18661     18657     18655     18658     18659
     18657     18655     18658     18660     18657     18655     18658     18661
     18662     18666     18669     18670     18662     18666     18669     18671
     18662     18666     18669     18675     18663     18662     18666     18667
     18663     18662     18666     18668     18663     18662     18666     18669
     18664     18662     18666     18667     18664     18662     18666     18668
     18664     18662     18666     18669     18665     18662     18666     18667
     18665     18662     18666     18668     18665     18662     18666     18669
     18666     18669     18675     18672     18667     18666     18669     18670
     18667     18666     18669     18671     18667     18666     18669     18675
     18668     18666     18669     18670     18668     18666     18669     18671
     18668     18666     18669     18675     18669     18675     18672     18673
     18669     18675     18672     18674     18669     18675     18672     18676
     18670     18669     18675     18672     18671     18669     18675     18672
     18672     18676     18677     18678     18672     18676     18677     18679
     18672     18676     18677     18680     18673     18672     18676     18677
     18674     18672     18676     18677     18675     18672     18676     18677
     18676     18677     18680     18681     18676     18677     18680     18682
     18676     18677     18680     18688     18677     18680     18682     18683
     18677     18680     18688     18689     18677     18680     18688     18690
     18677     18680     18688     18691     18678     18677     18680     18681
     18678     18677     18680     18682     18678     18677     18680     18688
     18679     18677     18680     18681     18679     18677     18680     18682
     18679     18677     18680     18688     18680     18682     18683     18684
     18680     18682     18683     18685     18680     18688     18691     18692
     18681     18680     18682     18683     18681     18680     18688     18689
     18681     18680     18688     18690     18681     18680     18688     18691
     18682     18680     18688     18689     18682     18680     18688     18690
     18682     18680     18688     18691     18682     18683     18685     18686
     18682     18683     18685     18687     18682     18683     18685     18697
     18683     18682     18680     18688     18683     18685     18697     18698
     18683     18685     18697     18699     18683     18685     18697     18700
     18684     18683     18685     18686     18684     18683     18685     18687
     18684     18683     18685     18697     18685     18697     18700     18701
     18685     18697     18700     18702     18685     18697     18700     18703
     18686     18685     18697     18698     18686     18685     18697     18699
     18686     18685     18697     18700     18687     18685     18697     18698
     18687     18685     18697     18699     18687     18685     18697     18700
     18688     18691     18692     18693     18688     18691     18692     18694
     18689     18688     18691     18692     18690     18688     18691     18692
     18691     18692     18694     18695     18691     18692     18694     18696
     18691     18692     18694     18744     18692     18694     18744     18745
     18692     18694     18744     18746     18692     18694     18744     18747
     18693     18692     18694     18695     18693     18692     18694     18696
     18693     18692     18694     18744     18694     18744     18747     18748
     18694     18744     18747     18749     18694     18744     18747     18750
     18695     18694     18744     18745     18695     18694     18744     18746
     18695     18694     18744     18747     18696     18694     18744     18745
     18696     18694     18744     18746     18696     18694     18744     18747
     18697     18700     18703     18704     18697     18700     18703     18705
     18697     18700     18703     18706     18698     18697     18700     18701
     18698     18697     18700     18702     18698     18697     18700     18703
     18699     18697     18700     18701     18699     18697     18700     18702
     18699     18697     18700     18703     18700     18703     18706     18707
     18700     18703     18706     18708     18700     18703     18706     18709
     18701     18700     18703     18704     18701     18700     18703     18705
     18701     18700     18703     18706     18702     18700     18703     18704
     18702     18700     18703     18705     18702     18700     18703     18706
     18703     18706     18709     18710     18703     18706     18709     18711
     18703     18706     18709     18712     18704     18703     18706     18707
     18704     18703     18706     18708     18704     18703     18706     18709
     18705     18703     18706     18707     18705     18703     18706     18708
     18705     18703     18706     18709     18706     18709     18712     18713
     18706     18709     18712     18714     18706     18709     18712     18715
     18707     18706     18709     18710     18707     18706     18709     18711
     18707     18706     18709     18712     18708     18706     18709     18710
     18708     18706     18709     18711     18708     18706     18709     18712
     18709     18712     18715     18716     18709     18712     18715     18717
     18710     18709     18712     18713     18710     18709     18712     18714
     18710     18709     18712     18715     18711     18709     18712     18713
     18711     18709     18712     18714     18711     18709     18712     18715
     18712     18715     18717     18718     18712     18715     18717     18719
     18713     18712     18715     18716     18713     18712     18715     18717
     18714     18712     18715     18716     18714     18712     18715     18717
     18715     18717     18719     18720     18715     18717     18719     18721
     18715     18717     18719     18722     18716     18715     18717     18718
     18716     18715     18717     18719     18717     18719     18722     18723
     18717     18719     18722     18724     18717     18719     18722     18725
     18718     18717     18719     18720     18718     18717     18719     18721
     18718     18717     18719     18722     18719     18722     18725     18726
     18719     18722     18725     18727     18719     18722     18725     18728
     18720     18719     18722     18723     18720     18719     18722     18724
     18720     18719     18722     18725     18721     18719     18722     18723
     18721     18719     18722     18724     18721     18719     18722     18725
     18722     18725     18728     18729     18722     18725     18728     18730
     18722     18725     18728     18731     18723     18722     18725     18726
     18723     18722     18725     18727     18723     18722     18725     18728
     18724     18722     18725     18726     18724     18722     18725     18727
     18724     18722     18725     18728     18725     18728     18731     18732
     18725     18728     18731     18733     18725     18728     18731     18734
     18726     18725     18728     18729     18726     18725     18728     18730
     18726     18725     18728     18731     18727     18725     18728     18729
     18727     18725     18728     18730     18727     18725     18728     18731
     18728     18731     18734     18735     18728     18731     18734     18736
     18728     18731     18734     18737     18729     18728     18731     18732
     18729     18728     18731     18733     18729     18728     18731     18734
     18730     18728     18731     18732     18730     18728     18731     18733
     18730     18728     18731     18734     18731     18734     18737     18738
     18731     18734     18737     18739     18731     18734     18737     18740
     18732     18731     18734     18735     18732     18731     18734     18736
     18732     18731     18734     18737     18733     18731     18734     18735
     18733     18731     18734     18736     18733     18731     18734     18737
     18734     18737     18740     18741     18734     18737     18740     18742
     18734     18737     18740     18743     18735     18734     18737     18738
     18735     18734     18737     18739     18735     18734     18737     18740
     18736     18734     18737     18738     18736     18734     18737     18739
     18736     18734     18737     18740     18738     18737     18740     18741
     18738     18737     18740     18742     18738     18737     18740     18743
     18739     18737     18740     18741     18739     18737     18740     18742
     18739     18737     18740     18743     18744     18747     18750     18751
     18744     18747     18750     18752     18744     18747     18750     18753
     18745     18744     18747     18748     18745     18744     18747     18749
     18745     18744     18747     18750     18746     18744     18747     18748
     18746     18744     18747     18749     18746     18744     18747     18750
     18747     18750     18753     18754     18747     18750     18753     18755
     18747     18750     18753     18756     18748     18747     18750     18751
     18748     18747     18750     18752     18748     18747     18750     18753
     18749     18747     18750     18751     18749     18747     18750     18752
     18749     18747     18750     18753     18750     18753     18756     18757
     18750     18753     18756     18758     18750     18753     18756     18759
     18751     18750     18753     18754     18751     18750     18753     18755
     18751     18750     18753     18756     18752     18750     18753     18754
     18752     18750     18753     18755     18752     18750     18753     18756
     18753     18756     18759     18760     18753     18756     18759     18761
     18753     18756     18759     18762     18754     18753     18756     18757
     18754     18753     18756     18758     18754     18753     18756     18759
     18755     18753     18756     18757     18755     18753     18756     18758
     18755     18753     18756     18759     18756     18759     18762     18763
     18756     18759     18762     18764     18756     18759     18762     18765
     18757     18756     18759     18760     18757     18756     18759     18761
     18757     18756     18759     18762     18758     18756     18759     18760
     18758     18756     18759     18761     18758     18756     18759     18762
     18759     18762     18765     18766     18759     18762     18765     18767
     18759     18762     18765     18768     18760     18759     18762     18763
     18760     18759     18762     18764     18760     18759     18762     18765
     18761     18759     18762     18763     18761     18759     18762     18764
     18761     18759     18762     18765     18762     18765     18768     18769
     18762     18765     18768     18770     18762     18765     18768     18771
     18763     18762     18765     18766     18763     18762     18765     18767
     18763     18762     18765     18768     18764     18762     18765     18766
     18764     18762     18765     18767     18764     18762     18765     18768
     18765     18768     18771     18772     18765     18768     18771     18773
     18765     18768     18771     18774     18766     18765     18768     18769
     18766     18765     18768     18770     18766     18765     18768     18771
     18767     18765     18768     18769     18767     18765     18768     18770
     18767     18765     18768     18771     18768     18771     18774     18775
     18768     18771     18774     18776     18768     18771     18774     18777
     18769     18768     18771     18772     18769     18768     18771     18773
     18769     18768     18771     18774     18770     18768     18771     18772
     18770     18768     18771     18773     18770     18768     18771     18774
     18771     18774     18777     18778     18771     18774     18777     18779
     18771     18774     18777     18780     18772     18771     18774     18775
     18772     18771     18774     18776     18772     18771     18774     18777
     18773     18771     18774     18775     18773     18771     18774     18776
     18773     18771     18774     18777     18774     18777     18780     18781
     18774     18777     18780     18782     18774     18777     18780     18783
     18775     18774     18777     18778     18775     18774     18777     18779
     18775     18774     18777     18780     18776     18774     18777     18778
     18776     18774     18777     18779     18776     18774     18777     18780
     18777     18780     18783     18784     18777     18780     18783     18785
     18777     18780     18783     18786     18778     18777     18780     18781
     18778     18777     18780     18782     18778     18777     18780     18783
     18779     18777     18780     18781     18779     18777     18780     18782
     18779     18777     18780     18783     18780     18783     18786     18787
     18780     18783     18786     18788     18780     18783     18786     18789
     18781     18780     18783     18784     18781     18780     18783     18785
     18781     18780     18783     18786     18782     18780     18783     18784
     18782     18780     18783     18785     18782     18780     18783     18786
     18783     18786     18789     18790     18783     18786     18789     18791
     18783     18786     18789     18792     18784     18783     18786     18787
     18784     18783     18786     18788     18784     18783     18786     18789
     18785     18783     18786     18787     18785     18783     18786     18788
     18785     18783     18786     18789     18787     18786     18789     18790
     18787     18786     18789     18791     18787     18786     18789     18792
     18788     18786     18789     18790     18788     18786     18789     18791
     18788     18786     18789     18792     18793     18794     18809     18810
     18793     18794     18809     18811     18793     18794     18809     18815
     18794     18793     18797     18798     18794     18793     18797     18799
     18794     18793     18797     18800     18794     18793     18801     18802
     18794     18793     18801     18803     18794     18793     18801     18804
     18794     18793     18805     18806     18794     18793     18805     18807
     18794     18793     18805     18808     18794     18809     18815     18812
     18795     18794     18793     18797     18795     18794     18793     18801
     18795     18794     18793     18805     18795     18794     18809     18810
     18795     18794     18809     18811     18795     18794     18809     18815
     18796     18794     18793     18797     18796     18794     18793     18801
     18796     18794     18793     18805     18796     18794     18809     18810
     18796     18794     18809     18811     18796     18794     18809     18815
     18797     18793     18794     18809     18797     18793     18801     18802
     18797     18793     18801     18803     18797     18793     18801     18804
     18797     18793     18805     18806     18797     18793     18805     18807
     18797     18793     18805     18808     18798     18797     18793     18801
     18798     18797     18793     18805     18799     18797     18793     18801
     18799     18797     18793     18805     18800     18797     18793     18801
     18800     18797     18793     18805     18801     18793     18794     18809
     18801     18793     18805     18806     18801     18793     18805     18807
     18801     18793     18805     18808     18802     18801     18793     18805
     18803     18801     18793     18805     18804     18801     18793     18805
     18805     18793     18794     18809     18809     18815     18812     18813
     18809     18815     18812     18814     18809     18815     18812     18816
     18810     18809     18815     18812     18811     18809     18815     18812
     18812     18816     18817     18818     18812     18816     18817     18819
     18812     18816     18817     18820     18813     18812     18816     18817
     18814     18812     18816     18817     18815     18812     18816     18817
     18816     18817     18820     18821     18816     18817     18820     18822
     18816     18817     18820     18828     18817     18820     18822     18823
     18817     18820     18828     18829     18817     18820     18828     18830
     18817     18820     18828     18831     18818     18817     18820     18821
     18818     18817     18820     18822     18818     18817     18820     18828
     18819     18817     18820     18821     18819     18817     18820     18822
     18819     18817     18820     18828     18820     18822     18823     18824
     18820     18822     18823     18825     18820     18828     18831     18832
     18821     18820     18822     18823     18821     18820     18828     18829
     18821     18820     18828     18830     18821     18820     18828     18831
     18822     18820     18828     18829     18822     18820     18828     18830
     18822     18820     18828     18831     18822     18823     18825     18826
     18822     18823     18825     18827     18822     18823     18825     18837
     18823     18822     18820     18828     18823     18825     18837     18838
     18823     18825     18837     18839     18823     18825     18837     18840
     18824     18823     18825     18826     18824     18823     18825     18827
     18824     18823     18825     18837     18825     18837     18840     18841
     18825     18837     18840     18842     18825     18837     18840     18843
     18826     18825     18837     18838     18826     18825     18837     18839
     18826     18825     18837     18840     18827     18825     18837     18838
     18827     18825     18837     18839     18827     18825     18837     18840
     18828     18831     18832     18833     18828     18831     18832     18834
     18829     18828     18831     18832     18830     18828     18831     18832
     18831     18832     18834     18835     18831     18832     18834     18836
     18831     18832     18834     18884     18832     18834     18884     18885
     18832     18834     18884     18886     18832     18834     18884     18887
     18833     18832     18834     18835     18833     18832     18834     18836
     18833     18832     18834     18884     18834     18884     18887     18888
     18834     18884     18887     18889     18834     18884     18887     18890
     18835     18834     18884     18885     18835     18834     18884     18886
     18835     18834     18884     18887     18836     18834     18884     18885
     18836     18834     18884     18886     18836     18834     18884     18887
     18837     18840     18843     18844     18837     18840     18843     18845
     18838     18837     18840     18841     18838     18837     18840     18842
     18838     18837     18840     18843     18839     18837     18840     18841
     18839     18837     18840     18842     18839     18837     18840     18843
     18840     18843     18845     18846     18840     18843     18845     18847
     18841     18840     18843     18844     18841     18840     18843     18845
     18842     18840     18843     18844     18842     18840     18843     18845
     18843     18845     18847     18848     18843     18845     18847     18849
     18843     18845     18847     18850     18844     18843     18845     18846
     18844     18843     18845     18847     18845     18847     18850     18851
     18845     18847     18850     18852     18846     18845     18847     18848
     18846     18845     18847     18849     18846     18845     18847     18850
     18847     18850     18852     18853     18847     18850     18852     18854
     18848     18847     18850     18851     18848     18847     18850     18852
     18849     18847     18850     18851     18849     18847     18850     18852
     18850     18852     18854     18855     18850     18852     18854     18856
     18850     18852     18854     18857     18851     18850     18852     18853
     18851     18850     18852     18854     18852     18854     18857     18858
     18852     18854     18857     18859     18853     18852     18854     18855
     18853     18852     18854     18856     18853     18852     18854     18857
     18854     18857     18859     18860     18854     18857     18859     18861
     18855     18854     18857     18858     18855     18854     18857     18859
     18856     18854     18857     18858     18856     18854     18857     18859
     18857     18859     18861     18862     18857     18859     18861     18863
     18857     18859     18861     18864     18858     18857     18859     18860
     18858     18857     18859     18861     18859     18861     18864     18865
     18859     18861     18864     18866     18860     18859     18861     18862
     18860     18859     18861     18863     18860     18859     18861     18864
     18861     18864     18866     18867     18861     18864     18866     18868
     18862     18861     18864     18865     18862     18861     18864     18866
     18863     18861     18864     18865     18863     18861     18864     18866
     18864     18866     18868     18869     18864     18866     18868     18870
     18864     18866     18868     18871     18865     18864     18866     18867
     18865     18864     18866     18868     18866     18868     18871     18872
     18866     18868     18871     18873     18866     18868     18871     18874
     18867     18866     18868     18869     18867     18866     18868     18870
     18867     18866     18868     18871     18868     18871     18874     18875
     18868     18871     18874     18876     18868     18871     18874     18877
     18869     18868     18871     18872     18869     18868     18871     18873
     18869     18868     18871     18874     18870     18868     18871     18872
     18870     18868     18871     18873     18870     18868     18871     18874
     18871     18874     18877     18878     18871     18874     18877     18879
     18871     18874     18877     18880     18872     18871     18874     18875
     18872     18871     18874     18876     18872     18871     18874     18877
     18873     18871     18874     18875     18873     18871     18874     18876
     18873     18871     18874     18877     18874     18877     18880     18881
     18874     18877     18880     18882     18874     18877     18880     18883
     18875     18874     18877     18878     18875     18874     18877     18879
     18875     18874     18877     18880     18876     18874     18877     18878
     18876     18874     18877     18879     18876     18874     18877     18880
     18878     18877     18880     18881     18878     18877     18880     18882
     18878     18877     18880     18883     18879     18877     18880     18881
     18879     18877     18880     18882     18879     18877     18880     18883
     18884     18887     18890     18891     18884     18887     18890     18892
     18884     18887     18890     18893     18885     18884     18887     18888
     18885     18884     18887     18889     18885     18884     18887     18890
     18886     18884     18887     18888     18886     18884     18887     18889
     18886     18884     18887     18890     18887     18890     18893     18894
     18887     18890     18893     18895     18887     18890     18893     18896
     18888     18887     18890     18891     18888     18887     18890     18892
     18888     18887     18890     18893     18889     18887     18890     18891
     18889     18887     18890     18892     18889     18887     18890     18893
     18890     18893     18896     18897     18890     18893     18896     18898
     18890     18893     18896     18899     18891     18890     18893     18894
     18891     18890     18893     18895     18891     18890     18893     18896
     18892     18890     18893     18894     18892     18890     18893     18895
     18892     18890     18893     18896     18893     18896     18899     18900
     18893     18896     18899     18901     18893     18896     18899     18902
     18894     18893     18896     18897     18894     18893     18896     18898
     18894     18893     18896     18899     18895     18893     18896     18897
     18895     18893     18896     18898     18895     18893     18896     18899
     18896     18899     18902     18903     18896     18899     18902     18904
     18896     18899     18902     18905     18897     18896     18899     18900
     18897     18896     18899     18901     18897     18896     18899     18902
     18898     18896     18899     18900     18898     18896     18899     18901
     18898     18896     18899     18902     18899     18902     18905     18906
     18899     18902     18905     18907     18899     18902     18905     18908
     18900     18899     18902     18903     18900     18899     18902     18904
     18900     18899     18902     18905     18901     18899     18902     18903
     18901     18899     18902     18904     18901     18899     18902     18905
     18902     18905     18908     18909     18902     18905     18908     18910
     18902     18905     18908     18911     18903     18902     18905     18906
     18903     18902     18905     18907     18903     18902     18905     18908
     18904     18902     18905     18906     18904     18902     18905     18907
     18904     18902     18905     18908     18905     18908     18911     18912
     18905     18908     18911     18913     18905     18908     18911     18914
     18906     18905     18908     18909     18906     18905     18908     18910
     18906     18905     18908     18911     18907     18905     18908     18909
     18907     18905     18908     18910     18907     18905     18908     18911
     18908     18911     18914     18915     18908     18911     18914     18916
     18908     18911     18914     18917     18909     18908     18911     18912
     18909     18908     18911     18913     18909     18908     18911     18914
     18910     18908     18911     18912     18910     18908     18911     18913
     18910     18908     18911     18914     18911     18914     18917     18918
     18911     18914     18917     18919     18911     18914     18917     18920
     18912     18911     18914     18915     18912     18911     18914     18916
     18912     18911     18914     18917     18913     18911     18914     18915
     18913     18911     18914     18916     18913     18911     18914     18917
     18914     18917     18920     18921     18914     18917     18920     18922
     18914     18917     18920     18923     18915     18914     18917     18918
     18915     18914     18917     18919     18915     18914     18917     18920
     18916     18914     18917     18918     18916     18914     18917     18919
     18916     18914     18917     18920     18917     18920     18923     18924
     18917     18920     18923     18925     18917     18920     18923     18926
     18918     18917     18920     18921     18918     18917     18920     18922
     18918     18917     18920     18923     18919     18917     18920     18921
     18919     18917     18920     18922     18919     18917     18920     18923
     18920     18923     18926     18927     18920     18923     18926     18928
     18920     18923     18926     18929     18921     18920     18923     18924
     18921     18920     18923     18925     18921     18920     18923     18926
     18922     18920     18923     18924     18922     18920     18923     18925
     18922     18920     18923     18926     18923     18926     18929     18930
     18923     18926     18929     18931     18923     18926     18929     18932
     18924     18923     18926     18927     18924     18923     18926     18928
     18924     18923     18926     18929     18925     18923     18926     18927
     18925     18923     18926     18928     18925     18923     18926     18929
     18927     18926     18929     18930     18927     18926     18929     18931
     18927     18926     18929     18932     18928     18926     18929     18930
     18928     18926     18929     18931     18928     18926     18929     18932
     18933     18937     18940     18941     18933     18937     18940     18971
     18933     18979     18976     18971     18933     18979     18976     18977
     18933     18979     18976     18978     18934     18933     18935     18936
     18934     18933     18937     18938     18934     18933     18937     18939
     18934     18933     18937     18940     18934     18933     18979     18976
     18934     18933     18979     18980     18934     18933     18979     18981
     18935     18933     18937     18938     18935     18933     18937     18939
     18935     18933     18937     18940     18935     18933     18979     18976
     18935     18933     18979     18980     18935     18933     18979     18981
     18936     18935     18933     18937     18936     18935     18933     18979
     18937     18933     18979     18976     18937     18933     18979     18980
     18937     18933     18979     18981     18937     18940     18941     18942
     18937     18940     18941     18943     18937     18940     18971     18969
     18937     18940     18971     18972     18937     18940     18971     18976
     18938     18937     18933     18979     18938     18937     18940     18941
     18938     18937     18940     18971     18939     18937     18933     18979
     18939     18937     18940     18941     18939     18937     18940     18971
     18940     18937     18933     18979     18940     18941     18943     18944
     18940     18941     18943     18945     18940     18941     18943     18946
     18940     18971     18969     18946     18940     18971     18969     18966
     18940     18971     18969     18970     18940     18971     18972     18973
     18940     18971     18972     18974     18940     18971     18972     18975
     18940     18971     18976     18977     18940     18971     18976     18978
     18940     18971     18976     18979     18941     18940     18971     18969
     18941     18940     18971     18972     18941     18940     18971     18976
     18941     18943     18946     18947     18941     18943     18946     18948
     18941     18943     18946     18969     18942     18941     18940     18971
     18942     18941     18943     18944     18942     18941     18943     18945
     18942     18941     18943     18946     18943     18941     18940     18971
     18943     18946     18948     18949     18943     18946     18948     18950
     18943     18946     18948     18958     18943     18946     18969     18966
     18943     18946     18969     18970     18943     18946     18969     18971
     18944     18943     18946     18947     18944     18943     18946     18948
     18944     18943     18946     18969     18945     18943     18946     18947
     18945     18943     18946     18948     18945     18943     18946     18969
     18946     18948     18950     18951     18946     18948     18950     18952
     18946     18948     18950     18953     18946     18948     18958     18956
     18946     18948     18958     18959     18946     18948     18958     18963
     18946     18969     18966     18963     18946     18969     18966     18967
     18946     18969     18966     18968     18946     18969     18971     18972
     18946     18969     18971     18976     18947     18946     18948     18949
     18947     18946     18948     18950     18947     18946     18948     18958
     18947     18946     18969     18966     18947     18946     18969     18970
     18947     18946     18969     18971     18948     18946     18969     18966
     18948     18946     18969     18970     18948     18946     18969     18971
     18948     18950     18953     18954     18948     18950     18953     18955
     18948     18950     18953     18956     18948     18958     18956     18953
     18948     18958     18956     18957     18948     18958     18956     18982
     18948     18958     18959     18960     18948     18958     18959     18961
     18948     18958     18959     18962     18948     18958     18963     18964
     18948     18958     18963     18965     18948     18958     18963     18966
     18949     18948     18946     18969     18949     18948     18950     18951
     18949     18948     18950     18952     18949     18948     18950     18953
     18949     18948     18958     18956     18949     18948     18958     18959
     18949     18948     18958     18963     18950     18948     18946     18969
     18950     18948     18958     18956     18950     18948     18958     18959
     18950     18948     18958     18963     18950     18953     18956     18957
     18950     18953     18956     18958     18950     18953     18956     18982
     18951     18950     18948     18958     18951     18950     18953     18954
     18951     18950     18953     18955     18951     18950     18953     18956
     18952     18950     18948     18958     18952     18950     18953     18954
     18952     18950     18953     18955     18952     18950     18953     18956
     18953     18950     18948     18958     18953     18956     18958     18959
     18953     18956     18958     18963     18953     18956     18982     18983
     18953     18956     18982     18984     18953     18956     18982     18988
     18954     18953     18956     18957     18954     18953     18956     18958
     18954     18953     18956     18982     18955     18953     18956     18957
     18955     18953     18956     18958     18955     18953     18956     18982
     18956     18958     18959     18960     18956     18958     18959     18961
     18956     18958     18959     18962     18956     18958     18963     18964
     18956     18958     18963     18965     18956     18958     18963     18966
     18956     18982     18984     18985     18956     18982     18984     18986
     18956     18982     18984     18987     18956     18982     18988     18989
     18956     18982     18988     18990     18956     18982     18988     18991
     18957     18956     18958     18959     18957     18956     18958     18963
     18957     18956     18982     18983     18957     18956     18982     18984
     18957     18956     18982     18988     18958     18948     18946     18969
     18958     18956     18982     18983     18958     18956     18982     18984
     18958     18956     18982     18988     18958     18963     18966     18967
     18958     18963     18966     18968     18958     18963     18966     18969
     18959     18958     18956     18982     18959     18958     18963     18964
     18959     18958     18963     18965     18959     18958     18963     18966
     18960     18959     18958     18963     18961     18959     18958     18963
     18962     18959     18958     18963     18963     18958     18956     18982
     18963     18966     18969     18970     18963     18966     18969     18971
     18964     18963     18966     18967     18964     18963     18966     18968
     18964     18963     18966     18969     18965     18963     18966     18967
     18965     18963     18966     18968     18965     18963     18966     18969
     18966     18969     18971     18972     18966     18969     18971     18976
     18967     18966     18969     18970     18967     18966     18969     18971
     18968     18966     18969     18970     18968     18966     18969     18971
     18969     18971     18972     18973     18969     18971     18972     18974
     18969     18971     18972     18975     18969     18971     18976     18977
     18969     18971     18976     18978     18969     18971     18976     18979
     18970     18969     18971     18972     18970     18969     18971     18976
     18971     18976     18979     18980     18971     18976     18979     18981
     18972     18971     18976     18977     18972     18971     18976     18978
     18972     18971     18976     18979     18973     18972     18971     18976
     18974     18972     18971     18976     18975     18972     18971     18976
     18977     18976     18979     18980     18977     18976     18979     18981
     18978     18976     18979     18980     18978     18976     18979     18981
     18982     18988     18991     18992     18982     18988     18991     18993
     18982     18988     18991     18994     18983     18982     18984     18985
     18983     18982     18984     18986     18983     18982     18984     18987
     18983     18982     18988     18989     18983     18982     18988     18990
     18983     18982     18988     18991     18984     18982     18988     18989
     18984     18982     18988     18990     18984     18982     18988     18991
     18985     18984     18982     18988     18986     18984     18982     18988
     18987     18984     18982     18988     18988     18991     18994     18995
     18988     18991     18994     18996     18988     18991     18994     18997
     18989     18988     18991     18992     18989     18988     18991     18993
     18989     18988     18991     18994     18990     18988     18991     18992
     18990     18988     18991     18993     18990     18988     18991     18994
     18991     18994     18997     18998     18991     18994     18997     18999
     18991     18994     18997     19003     18992     18991     18994     18995
     18992     18991     18994     18996     18992     18991     18994     18997
     18993     18991     18994     18995     18993     18991     18994     18996
     18993     18991     18994     18997     18994     18997     18999     19000
     18994     18997     18999     19001     18994     18997     18999     19002
     18994     18997     19003     19004     18994     18997     19003     19005
     18994     18997     19003     19006     18995     18994     18997     18998
     18995     18994     18997     18999     18995     18994     18997     19003
     18996     18994     18997     18998     18996     18994     18997     18999
     18996     18994     18997     19003     18998     18997     18999     19000
     18998     18997     18999     19001     18998     18997     18999     19002
     18998     18997     19003     19004     18998     18997     19003     19005
     18998     18997     19003     19006     18999     18997     19003     19004
     18999     18997     19003     19005     18999     18997     19003     19006
     19000     18999     18997     19003     19001     18999     18997     19003
     19002     18999     18997     19003     19007     19011     19014     19015
     19007     19011     19014     19016     19007     19011     19014     19020
     19008     19007     19011     19012     19008     19007     19011     19013
     19008     19007     19011     19014     19009     19007     19011     19012
     19009     19007     19011     19013     19009     19007     19011     19014
     19010     19007     19011     19012     19010     19007     19011     19013
     19010     19007     19011     19014     19011     19014     19020     19017
     19012     19011     19014     19015     19012     19011     19014     19016
     19012     19011     19014     19020     19013     19011     19014     19015
     19013     19011     19014     19016     19013     19011     19014     19020
     19014     19020     19017     19018     19014     19020     19017     19019
     19014     19020     19017     19021     19015     19014     19020     19017
     19016     19014     19020     19017     19017     19021     19022     19023
     19017     19021     19022     19024     19017     19021     19022     19025
     19018     19017     19021     19022     19019     19017     19021     19022
     19020     19017     19021     19022     19021     19022     19025     19026
     19021     19022     19025     19027     19021     19022     19025     19033
     19022     19025     19027     19028     19022     19025     19033     19034
     19022     19025     19033     19035     19022     19025     19033     19036
     19023     19022     19025     19026     19023     19022     19025     19027
     19023     19022     19025     19033     19024     19022     19025     19026
     19024     19022     19025     19027     19024     19022     19025     19033
     19025     19027     19028     19029     19025     19027     19028     19030
     19025     19033     19036     19037     19026     19025     19027     19028
     19026     19025     19033     19034     19026     19025     19033     19035
     19026     19025     19033     19036     19027     19025     19033     19034
     19027     19025     19033     19035     19027     19025     19033     19036
     19027     19028     19030     19031     19027     19028     19030     19032
     19027     19028     19030     19042     19028     19027     19025     19033
     19028     19030     19042     19043     19028     19030     19042     19044
     19028     19030     19042     19045     19029     19028     19030     19031
     19029     19028     19030     19032     19029     19028     19030     19042
     19030     19042     19045     19046     19030     19042     19045     19047
     19030     19042     19045     19048     19031     19030     19042     19043
     19031     19030     19042     19044     19031     19030     19042     19045
     19032     19030     19042     19043     19032     19030     19042     19044
     19032     19030     19042     19045     19033     19036     19037     19038
     19033     19036     19037     19039     19034     19033     19036     19037
     19035     19033     19036     19037     19036     19037     19039     19040
     19036     19037     19039     19041     19036     19037     19039     19089
     19037     19039     19089     19090     19037     19039     19089     19091
     19037     19039     19089     19092     19038     19037     19039     19040
     19038     19037     19039     19041     19038     19037     19039     19089
     19039     19089     19092     19093     19039     19089     19092     19094
     19039     19089     19092     19095     19040     19039     19089     19090
     19040     19039     19089     19091     19040     19039     19089     19092
     19041     19039     19089     19090     19041     19039     19089     19091
     19041     19039     19089     19092     19042     19045     19048     19049
     19042     19045     19048     19050     19043     19042     19045     19046
     19043     19042     19045     19047     19043     19042     19045     19048
     19044     19042     19045     19046     19044     19042     19045     19047
     19044     19042     19045     19048     19045     19048     19050     19051
     19045     19048     19050     19052     19046     19045     19048     19049
     19046     19045     19048     19050     19047     19045     19048     19049
     19047     19045     19048     19050     19048     19050     19052     19053
     19048     19050     19052     19054     19048     19050     19052     19055
     19049     19048     19050     19051     19049     19048     19050     19052
     19050     19052     19055     19056     19050     19052     19055     19057
     19051     19050     19052     19053     19051     19050     19052     19054
     19051     19050     19052     19055     19052     19055     19057     19058
     19052     19055     19057     19059     19053     19052     19055     19056
     19053     19052     19055     19057     19054     19052     19055     19056
     19054     19052     19055     19057     19055     19057     19059     19060
     19055     19057     19059     19061     19055     19057     19059     19062
     19056     19055     19057     19058     19056     19055     19057     19059
     19057     19059     19062     19063     19057     19059     19062     19064
     19058     19057     19059     19060     19058     19057     19059     19061
     19058     19057     19059     19062     19059     19062     19064     19065
     19059     19062     19064     19066     19060     19059     19062     19063
     19060     19059     19062     19064     19061     19059     19062     19063
     19061     19059     19062     19064     19062     19064     19066     19067
     19062     19064     19066     19068     19062     19064     19066     19069
     19063     19062     19064     19065     19063     19062     19064     19066
     19064     19066     19069     19070     19064     19066     19069     19071
     19065     19064     19066     19067     19065     19064     19066     19068
     19065     19064     19066     19069     19066     19069     19071     19072
     19066     19069     19071     19073     19067     19066     19069     19070
     19067     19066     19069     19071     19068     19066     19069     19070
     19068     19066     19069     19071     19069     19071     19073     19074
     19069     19071     19073     19075     19069     19071     19073     19076
     19070     19069     19071     19072     19070     19069     19071     19073
     19071     19073     19076     19077     19071     19073     19076     19078
     19071     19073     19076     19079     19072     19071     19073     19074
     19072     19071     19073     19075     19072     19071     19073     19076
     19073     19076     19079     19080     19073     19076     19079     19081
     19073     19076     19079     19082     19074     19073     19076     19077
     19074     19073     19076     19078     19074     19073     19076     19079
     19075     19073     19076     19077     19075     19073     19076     19078
     19075     19073     19076     19079     19076     19079     19082     19083
     19076     19079     19082     19084     19076     19079     19082     19085
     19077     19076     19079     19080     19077     19076     19079     19081
     19077     19076     19079     19082     19078     19076     19079     19080
     19078     19076     19079     19081     19078     19076     19079     19082
     19079     19082     19085     19086     19079     19082     19085     19087
     19079     19082     19085     19088     19080     19079     19082     19083
     19080     19079     19082     19084     19080     19079     19082     19085
     19081     19079     19082     19083     19081     19079     19082     19084
     19081     19079     19082     19085     19083     19082     19085     19086
     19083     19082     19085     19087     19083     19082     19085     19088
     19084     19082     19085     19086     19084     19082     19085     19087
     19084     19082     19085     19088     19089     19092     19095     19096
     19089     19092     19095     19097     19089     19092     19095     19098
     19090     19089     19092     19093     19090     19089     19092     19094
     19090     19089     19092     19095     19091     19089     19092     19093
     19091     19089     19092     19094     19091     19089     19092     19095
     19092     19095     19098     19099     19092     19095     19098     19100
     19092     19095     19098     19101     19093     19092     19095     19096
     19093     19092     19095     19097     19093     19092     19095     19098
     19094     19092     19095     19096     19094     19092     19095     19097
     19094     19092     19095     19098     19095     19098     19101     19102
     19095     19098     19101     19103     19095     19098     19101     19104
     19096     19095     19098     19099     19096     19095     19098     19100
     19096     19095     19098     19101     19097     19095     19098     19099
     19097     19095     19098     19100     19097     19095     19098     19101
     19098     19101     19104     19105     19098     19101     19104     19106
     19098     19101     19104     19107     19099     19098     19101     19102
     19099     19098     19101     19103     19099     19098     19101     19104
     19100     19098     19101     19102     19100     19098     19101     19103
     19100     19098     19101     19104     19101     19104     19107     19108
     19101     19104     19107     19109     19101     19104     19107     19110
     19102     19101     19104     19105     19102     19101     19104     19106
     19102     19101     19104     19107     19103     19101     19104     19105
     19103     19101     19104     19106     19103     19101     19104     19107
     19104     19107     19110     19111     19104     19107     19110     19112
     19104     19107     19110     19113     19105     19104     19107     19108
     19105     19104     19107     19109     19105     19104     19107     19110
     19106     19104     19107     19108     19106     19104     19107     19109
     19106     19104     19107     19110     19107     19110     19113     19114
     19107     19110     19113     19115     19107     19110     19113     19116
     19108     19107     19110     19111     19108     19107     19110     19112
     19108     19107     19110     19113     19109     19107     19110     19111
     19109     19107     19110     19112     19109     19107     19110     19113
     19110     19113     19116     19117     19110     19113     19116     19118
     19110     19113     19116     19119     19111     19110     19113     19114
     19111     19110     19113     19115     19111     19110     19113     19116
     19112     19110     19113     19114     19112     19110     19113     19115
     19112     19110     19113     19116     19113     19116     19119     19120
     19113     19116     19119     19121     19113     19116     19119     19122
     19114     19113     19116     19117     19114     19113     19116     19118
     19114     19113     19116     19119     19115     19113     19116     19117
     19115     19113     19116     19118     19115     19113     19116     19119
     19116     19119     19122     19123     19116     19119     19122     19124
     19116     19119     19122     19125     19117     19116     19119     19120
     19117     19116     19119     19121     19117     19116     19119     19122
     19118     19116     19119     19120     19118     19116     19119     19121
     19118     19116     19119     19122     19119     19122     19125     19126
     19119     19122     19125     19127     19119     19122     19125     19128
     19120     19119     19122     19123     19120     19119     19122     19124
     19120     19119     19122     19125     19121     19119     19122     19123
     19121     19119     19122     19124     19121     19119     19122     19125
     19122     19125     19128     19129     19122     19125     19128     19130
     19122     19125     19128     19131     19123     19122     19125     19126
     19123     19122     19125     19127     19123     19122     19125     19128
     19124     19122     19125     19126     19124     19122     19125     19127
     19124     19122     19125     19128     19125     19128     19131     19132
     19125     19128     19131     19133     19125     19128     19131     19134
     19126     19125     19128     19129     19126     19125     19128     19130
     19126     19125     19128     19131     19127     19125     19128     19129
     19127     19125     19128     19130     19127     19125     19128     19131
     19128     19131     19134     19135     19128     19131     19134     19136
     19128     19131     19134     19137     19129     19128     19131     19132
     19129     19128     19131     19133     19129     19128     19131     19134
     19130     19128     19131     19132     19130     19128     19131     19133
     19130     19128     19131     19134     19132     19131     19134     19135
     19132     19131     19134     19136     19132     19131     19134     19137
     19133     19131     19134     19135     19133     19131     19134     19136
     19133     19131     19134     19137     19138     19151     19154     19155
     19138     19151     19154     19156     19138     19151     19154     19161
     19139     19138     19143     19144     19139     19138     19143     19145
     19139     19138     19143     19146     19139     19138     19147     19148
     19139     19138     19147     19149     19139     19138     19147     19150
     19139     19138     19151     19152     19139     19138     19151     19153
     19139     19138     19151     19154     19140     19139     19138     19143
     19140     19139     19138     19147     19140     19139     19138     19151
     19141     19139     19138     19143     19141     19139     19138     19147
     19141     19139     19138     19151     19142     19139     19138     19143
     19142     19139     19138     19147     19142     19139     19138     19151
     19143     19138     19147     19148     19143     19138     19147     19149
     19143     19138     19147     19150     19143     19138     19151     19152
     19143     19138     19151     19153     19143     19138     19151     19154
     19144     19143     19138     19147     19144     19143     19138     19151
     19145     19143     19138     19147     19145     19143     19138     19151
     19146     19143     19138     19147     19146     19143     19138     19151
     19147     19138     19151     19152     19147     19138     19151     19153
     19147     19138     19151     19154     19148     19147     19138     19151
     19149     19147     19138     19151     19150     19147     19138     19151
     19151     19154     19161     19157     19152     19151     19154     19155
     19152     19151     19154     19156     19152     19151     19154     19161
     19153     19151     19154     19155     19153     19151     19154     19156
     19153     19151     19154     19161     19154     19161     19157     19158
     19154     19161     19157     19159     19154     19161     19157     19160
     19155     19154     19161     19157     19156     19154     19161     19157
     19157     19160     19162     19163     19157     19160     19162     19164
     19157     19160     19162     19167     19158     19157     19160     19162
     19159     19157     19160     19162     19160     19162     19167     19165
     19160     19162     19167     19168     19160     19162     19167     19169
     19161     19157     19160     19162     19162     19167     19165     19166
     19162     19167     19165     19217     19162     19167     19169     19170
     19162     19167     19169     19171     19162     19167     19169     19173
     19163     19162     19167     19165     19163     19162     19167     19168
     19163     19162     19167     19169     19164     19162     19167     19165
     19164     19162     19167     19168     19164     19162     19167     19169
     19165     19167     19169     19170     19165     19167     19169     19171
     19165     19167     19169     19173     19165     19217     19219     19220
     19165     19217     19219     19221     19165     19217     19219     19222
     19166     19165     19167     19168     19166     19165     19167     19169
     19166     19165     19217     19218     19166     19165     19217     19219
     19167     19165     19217     19218     19167     19165     19217     19219
     19167     19169     19171     19172     19167     19169     19173     19174
     19167     19169     19173     19175     19168     19167     19165     19217
     19168     19167     19169     19170     19168     19167     19169     19171
     19168     19167     19169     19173     19169     19167     19165     19217
     19169     19173     19175     19176     19169     19173     19175     19177
     19170     19169     19171     19172     19170     19169     19173     19174
     19170     19169     19173     19175     19171     19169     19173     19174
     19171     19169     19173     19175     19172     19171     19169     19173
     19173     19175     19177     19178     19173     19175     19177     19179
     19173     19175     19177     19180     19174     19173     19175     19176
     19174     19173     19175     19177     19175     19177     19180     19181
     19175     19177     19180     19182     19175     19177     19180     19183
     19176     19175     19177     19178     19176     19175     19177     19179
     19176     19175     19177     19180     19177     19180     19183     19184
     19177     19180     19183     19185     19177     19180     19183     19186
     19178     19177     19180     19181     19178     19177     19180     19182
     19178     19177     19180     19183     19179     19177     19180     19181
     19179     19177     19180     19182     19179     19177     19180     19183
     19180     19183     19186     19187     19180     19183     19186     19188
     19180     19183     19186     19189     19181     19180     19183     19184
     19181     19180     19183     19185     19181     19180     19183     19186
     19182     19180     19183     19184     19182     19180     19183     19185
     19182     19180     19183     19186     19183     19186     19189     19190
     19183     19186     19189     19191     19183     19186     19189     19192
     19184     19183     19186     19187     19184     19183     19186     19188
     19184     19183     19186     19189     19185     19183     19186     19187
     19185     19183     19186     19188     19185     19183     19186     19189
     19186     19189     19192     19193     19186     19189     19192     19194
     19186     19189     19192     19195     19187     19186     19189     19190
     19187     19186     19189     19191     19187     19186     19189     19192
     19188     19186     19189     19190     19188     19186     19189     19191
     19188     19186     19189     19192     19189     19192     19195     19196
     19189     19192     19195     19197     19189     19192     19195     19198
     19190     19189     19192     19193     19190     19189     19192     19194
     19190     19189     19192     19195     19191     19189     19192     19193
     19191     19189     19192     19194     19191     19189     19192     19195
     19192     19195     19198     19199     19192     19195     19198     19200
     19192     19195     19198     19201     19193     19192     19195     19196
     19193     19192     19195     19197     19193     19192     19195     19198
     19194     19192     19195     19196     19194     19192     19195     19197
     19194     19192     19195     19198     19195     19198     19201     19202
     19195     19198     19201     19203     19195     19198     19201     19204
     19196     19195     19198     19199     19196     19195     19198     19200
     19196     19195     19198     19201     19197     19195     19198     19199
     19197     19195     19198     19200     19197     19195     19198     19201
     19198     19201     19204     19205     19198     19201     19204     19206
     19198     19201     19204     19207     19199     19198     19201     19202
     19199     19198     19201     19203     19199     19198     19201     19204
     19200     19198     19201     19202     19200     19198     19201     19203
     19200     19198     19201     19204     19201     19204     19207     19208
     19201     19204     19207     19209     19201     19204     19207     19210
     19202     19201     19204     19205     19202     19201     19204     19206
     19202     19201     19204     19207     19203     19201     19204     19205
     19203     19201     19204     19206     19203     19201     19204     19207
     19204     19207     19210     19211     19204     19207     19210     19212
     19204     19207     19210     19213     19205     19204     19207     19208
     19205     19204     19207     19209     19205     19204     19207     19210
     19206     19204     19207     19208     19206     19204     19207     19209
     19206     19204     19207     19210     19207     19210     19213     19214
     19207     19210     19213     19215     19207     19210     19213     19216
     19208     19207     19210     19211     19208     19207     19210     19212
     19208     19207     19210     19213     19209     19207     19210     19211
     19209     19207     19210     19212     19209     19207     19210     19213
     19211     19210     19213     19214     19211     19210     19213     19215
     19211     19210     19213     19216     19212     19210     19213     19214
     19212     19210     19213     19215     19212     19210     19213     19216
     19217     19219     19222     19223     19217     19219     19222     19224
     19217     19219     19222     19225     19218     19217     19219     19220
     19218     19217     19219     19221     19218     19217     19219     19222
     19219     19222     19225     19226     19219     19222     19225     19227
     19219     19222     19225     19228     19220     19219     19222     19223
     19220     19219     19222     19224     19220     19219     19222     19225
     19221     19219     19222     19223     19221     19219     19222     19224
     19221     19219     19222     19225     19222     19225     19228     19229
     19222     19225     19228     19230     19222     19225     19228     19231
     19223     19222     19225     19226     19223     19222     19225     19227
     19223     19222     19225     19228     19224     19222     19225     19226
     19224     19222     19225     19227     19224     19222     19225     19228
     19225     19228     19231     19232     19225     19228     19231     19233
     19225     19228     19231     19234     19226     19225     19228     19229
     19226     19225     19228     19230     19226     19225     19228     19231
     19227     19225     19228     19229     19227     19225     19228     19230
     19227     19225     19228     19231     19228     19231     19234     19235
     19228     19231     19234     19236     19228     19231     19234     19237
     19229     19228     19231     19232     19229     19228     19231     19233
     19229     19228     19231     19234     19230     19228     19231     19232
     19230     19228     19231     19233     19230     19228     19231     19234
     19231     19234     19237     19238     19231     19234     19237     19239
     19231     19234     19237     19240     19232     19231     19234     19235
     19232     19231     19234     19236     19232     19231     19234     19237
     19233     19231     19234     19235     19233     19231     19234     19236
     19233     19231     19234     19237     19234     19237     19240     19241
     19234     19237     19240     19242     19235     19234     19237     19238
     19235     19234     19237     19239     19235     19234     19237     19240
     19236     19234     19237     19238     19236     19234     19237     19239
     19236     19234     19237     19240     19237     19240     19242     19243
     19237     19240     19242     19244     19238     19237     19240     19241
     19238     19237     19240     19242     19239     19237     19240     19241
     19239     19237     19240     19242     19240     19242     19244     19245
     19240     19242     19244     19246     19240     19242     19244     19247
     19241     19240     19242     19243     19241     19240     19242     19244
     19242     19244     19247     19248     19242     19244     19247     19249
     19242     19244     19247     19250     19243     19242     19244     19245
     19243     19242     19244     19246     19243     19242     19244     19247
     19244     19247     19250     19251     19244     19247     19250     19252
     19244     19247     19250     19253     19245     19244     19247     19248
     19245     19244     19247     19249     19245     19244     19247     19250
     19246     19244     19247     19248     19246     19244     19247     19249
     19246     19244     19247     19250     19247     19250     19253     19254
     19247     19250     19253     19255     19247     19250     19253     19256
     19248     19247     19250     19251     19248     19247     19250     19252
     19248     19247     19250     19253     19249     19247     19250     19251
     19249     19247     19250     19252     19249     19247     19250     19253
     19250     19253     19256     19257     19250     19253     19256     19258
     19250     19253     19256     19259     19251     19250     19253     19254
     19251     19250     19253     19255     19251     19250     19253     19256
     19252     19250     19253     19254     19252     19250     19253     19255
     19252     19250     19253     19256     19253     19256     19259     19260
     19253     19256     19259     19261     19253     19256     19259     19262
     19254     19253     19256     19257     19254     19253     19256     19258
     19254     19253     19256     19259     19255     19253     19256     19257
     19255     19253     19256     19258     19255     19253     19256     19259
     19256     19259     19262     19263     19256     19259     19262     19264
     19256     19259     19262     19265     19257     19256     19259     19260
     19257     19256     19259     19261     19257     19256     19259     19262
     19258     19256     19259     19260     19258     19256     19259     19261
     19258     19256     19259     19262     19259     19262     19265     19266
     19259     19262     19265     19267     19259     19262     19265     19268
     19260     19259     19262     19263     19260     19259     19262     19264
     19260     19259     19262     19265     19261     19259     19262     19263
     19261     19259     19262     19264     19261     19259     19262     19265
     19263     19262     19265     19266     19263     19262     19265     19267
     19263     19262     19265     19268     19264     19262     19265     19266
     19264     19262     19265     19267     19264     19262     19265     19268
     19269     19273     19276     19277     19269     19273     19276     19307
     19269     19315     19312     19307     19269     19315     19312     19313
     19269     19315     19312     19314     19270     19269     19271     19272
     19270     19269     19273     19274     19270     19269     19273     19275
     19270     19269     19273     19276     19270     19269     19315     19312
     19270     19269     19315     19316     19270     19269     19315     19317
     19271     19269     19273     19274     19271     19269     19273     19275
     19271     19269     19273     19276     19271     19269     19315     19312
     19271     19269     19315     19316     19271     19269     19315     19317
     19272     19271     19269     19273     19272     19271     19269     19315
     19273     19269     19315     19312     19273     19269     19315     19316
     19273     19269     19315     19317     19273     19276     19277     19278
     19273     19276     19277     19279     19273     19276     19307     19305
     19273     19276     19307     19308     19273     19276     19307     19312
     19274     19273     19269     19315     19274     19273     19276     19277
     19274     19273     19276     19307     19275     19273     19269     19315
     19275     19273     19276     19277     19275     19273     19276     19307
     19276     19273     19269     19315     19276     19277     19279     19280
     19276     19277     19279     19281     19276     19277     19279     19282
     19276     19307     19305     19282     19276     19307     19305     19302
     19276     19307     19305     19306     19276     19307     19308     19309
     19276     19307     19308     19310     19276     19307     19308     19311
     19276     19307     19312     19313     19276     19307     19312     19314
     19276     19307     19312     19315     19277     19276     19307     19305
     19277     19276     19307     19308     19277     19276     19307     19312
     19277     19279     19282     19283     19277     19279     19282     19284
     19277     19279     19282     19305     19278     19277     19276     19307
     19278     19277     19279     19280     19278     19277     19279     19281
     19278     19277     19279     19282     19279     19277     19276     19307
     19279     19282     19284     19285     19279     19282     19284     19286
     19279     19282     19284     19294     19279     19282     19305     19302
     19279     19282     19305     19306     19279     19282     19305     19307
     19280     19279     19282     19283     19280     19279     19282     19284
     19280     19279     19282     19305     19281     19279     19282     19283
     19281     19279     19282     19284     19281     19279     19282     19305
     19282     19284     19286     19287     19282     19284     19286     19288
     19282     19284     19286     19289     19282     19284     19294     19292
     19282     19284     19294     19295     19282     19284     19294     19299
     19282     19305     19302     19299     19282     19305     19302     19303
     19282     19305     19302     19304     19282     19305     19307     19308
     19282     19305     19307     19312     19283     19282     19284     19285
     19283     19282     19284     19286     19283     19282     19284     19294
     19283     19282     19305     19302     19283     19282     19305     19306
     19283     19282     19305     19307     19284     19282     19305     19302
     19284     19282     19305     19306     19284     19282     19305     19307
     19284     19286     19289     19290     19284     19286     19289     19291
     19284     19286     19289     19292     19284     19294     19292     19289
     19284     19294     19292     19293     19284     19294     19292     19318
     19284     19294     19295     19296     19284     19294     19295     19297
     19284     19294     19295     19298     19284     19294     19299     19300
     19284     19294     19299     19301     19284     19294     19299     19302
     19285     19284     19282     19305     19285     19284     19286     19287
     19285     19284     19286     19288     19285     19284     19286     19289
     19285     19284     19294     19292     19285     19284     19294     19295
     19285     19284     19294     19299     19286     19284     19282     19305
     19286     19284     19294     19292     19286     19284     19294     19295
     19286     19284     19294     19299     19286     19289     19292     19293
     19286     19289     19292     19294     19286     19289     19292     19318
     19287     19286     19284     19294     19287     19286     19289     19290
     19287     19286     19289     19291     19287     19286     19289     19292
     19288     19286     19284     19294     19288     19286     19289     19290
     19288     19286     19289     19291     19288     19286     19289     19292
     19289     19286     19284     19294     19289     19292     19294     19295
     19289     19292     19294     19299     19289     19292     19318     19319
     19289     19292     19318     19320     19289     19292     19318     19324
     19290     19289     19292     19293     19290     19289     19292     19294
     19290     19289     19292     19318     19291     19289     19292     19293
     19291     19289     19292     19294     19291     19289     19292     19318
     19292     19294     19295     19296     19292     19294     19295     19297
     19292     19294     19295     19298     19292     19294     19299     19300
     19292     19294     19299     19301     19292     19294     19299     19302
     19292     19318     19320     19321     19292     19318     19320     19322
     19292     19318     19320     19323     19292     19318     19324     19325
     19292     19318     19324     19326     19292     19318     19324     19327
     19293     19292     19294     19295     19293     19292     19294     19299
     19293     19292     19318     19319     19293     19292     19318     19320
     19293     19292     19318     19324     19294     19284     19282     19305
     19294     19292     19318     19319     19294     19292     19318     19320
     19294     19292     19318     19324     19294     19299     19302     19303
     19294     19299     19302     19304     19294     19299     19302     19305
     19295     19294     19292     19318     19295     19294     19299     19300
     19295     19294     19299     19301     19295     19294     19299     19302
     19296     19295     19294     19299     19297     19295     19294     19299
     19298     19295     19294     19299     19299     19294     19292     19318
     19299     19302     19305     19306     19299     19302     19305     19307
     19300     19299     19302     19303     19300     19299     19302     19304
     19300     19299     19302     19305     19301     19299     19302     19303
     19301     19299     19302     19304     19301     19299     19302     19305
     19302     19305     19307     19308     19302     19305     19307     19312
     19303     19302     19305     19306     19303     19302     19305     19307
     19304     19302     19305     19306     19304     19302     19305     19307
     19305     19307     19308     19309     19305     19307     19308     19310
     19305     19307     19308     19311     19305     19307     19312     19313
     19305     19307     19312     19314     19305     19307     19312     19315
     19306     19305     19307     19308     19306     19305     19307     19312
     19307     19312     19315     19316     19307     19312     19315     19317
     19308     19307     19312     19313     19308     19307     19312     19314
     19308     19307     19312     19315     19309     19308     19307     19312
     19310     19308     19307     19312     19311     19308     19307     19312
     19313     19312     19315     19316     19313     19312     19315     19317
     19314     19312     19315     19316     19314     19312     19315     19317
     19318     19324     19327     19328     19318     19324     19327     19329
     19318     19324     19327     19330     19319     19318     19320     19321
     19319     19318     19320     19322     19319     19318     19320     19323
     19319     19318     19324     19325     19319     19318     19324     19326
     19319     19318     19324     19327     19320     19318     19324     19325
     19320     19318     19324     19326     19320     19318     19324     19327
     19321     19320     19318     19324     19322     19320     19318     19324
     19323     19320     19318     19324     19324     19327     19330     19331
     19324     19327     19330     19332     19324     19327     19330     19333
     19325     19324     19327     19328     19325     19324     19327     19329
     19325     19324     19327     19330     19326     19324     19327     19328
     19326     19324     19327     19329     19326     19324     19327     19330
     19327     19330     19333     19334     19327     19330     19333     19335
     19327     19330     19333     19339     19328     19327     19330     19331
     19328     19327     19330     19332     19328     19327     19330     19333
     19329     19327     19330     19331     19329     19327     19330     19332
     19329     19327     19330     19333     19330     19333     19335     19336
     19330     19333     19335     19337     19330     19333     19335     19338
     19330     19333     19339     19340     19330     19333     19339     19341
     19330     19333     19339     19342     19331     19330     19333     19334
     19331     19330     19333     19335     19331     19330     19333     19339
     19332     19330     19333     19334     19332     19330     19333     19335
     19332     19330     19333     19339     19334     19333     19335     19336
     19334     19333     19335     19337     19334     19333     19335     19338
     19334     19333     19339     19340     19334     19333     19339     19341
     19334     19333     19339     19342     19335     19333     19339     19340
     19335     19333     19339     19341     19335     19333     19339     19342
     19336     19335     19333     19339     19337     19335     19333     19339
     19338     19335     19333     19339     19343     19347     19350     19351
     19343     19347     19350     19352     19343     19347     19350     19356
     19344     19343     19347     19348     19344     19343     19347     19349
     19344     19343     19347     19350     19345     19343     19347     19348
     19345     19343     19347     19349     19345     19343     19347     19350
     19346     19343     19347     19348     19346     19343     19347     19349
     19346     19343     19347     19350     19347     19350     19356     19353
     19348     19347     19350     19351     19348     19347     19350     19352
     19348     19347     19350     19356     19349     19347     19350     19351
     19349     19347     19350     19352     19349     19347     19350     19356
     19350     19356     19353     19354     19350     19356     19353     19355
     19350     19356     19353     19357     19351     19350     19356     19353
     19352     19350     19356     19353     19353     19357     19358     19359
     19353     19357     19358     19360     19353     19357     19358     19361
     19354     19353     19357     19358     19355     19353     19357     19358
     19356     19353     19357     19358     19357     19358     19361     19362
     19357     19358     19361     19363     19357     19358     19361     19369
     19358     19361     19363     19364     19358     19361     19369     19370
     19358     19361     19369     19371     19358     19361     19369     19372
     19359     19358     19361     19362     19359     19358     19361     19363
     19359     19358     19361     19369     19360     19358     19361     19362
     19360     19358     19361     19363     19360     19358     19361     19369
     19361     19363     19364     19365     19361     19363     19364     19366
     19361     19369     19372     19373     19362     19361     19363     19364
     19362     19361     19369     19370     19362     19361     19369     19371
     19362     19361     19369     19372     19363     19361     19369     19370
     19363     19361     19369     19371     19363     19361     19369     19372
     19363     19364     19366     19367     19363     19364     19366     19368
     19363     19364     19366     19378     19364     19363     19361     19369
     19364     19366     19378     19379     19364     19366     19378     19380
     19364     19366     19378     19381     19365     19364     19366     19367
     19365     19364     19366     19368     19365     19364     19366     19378
     19366     19378     19381     19382     19366     19378     19381     19383
     19366     19378     19381     19384     19367     19366     19378     19379
     19367     19366     19378     19380     19367     19366     19378     19381
     19368     19366     19378     19379     19368     19366     19378     19380
     19368     19366     19378     19381     19369     19372     19373     19374
     19369     19372     19373     19375     19370     19369     19372     19373
     19371     19369     19372     19373     19372     19373     19375     19376
     19372     19373     19375     19377     19372     19373     19375     19425
     19373     19375     19425     19426     19373     19375     19425     19427
     19373     19375     19425     19428     19374     19373     19375     19376
     19374     19373     19375     19377     19374     19373     19375     19425
     19375     19425     19428     19429     19375     19425     19428     19430
     19375     19425     19428     19431     19376     19375     19425     19426
     19376     19375     19425     19427     19376     19375     19425     19428
     19377     19375     19425     19426     19377     19375     19425     19427
     19377     19375     19425     19428     19378     19381     19384     19385
     19378     19381     19384     19386     19379     19378     19381     19382
     19379     19378     19381     19383     19379     19378     19381     19384
     19380     19378     19381     19382     19380     19378     19381     19383
     19380     19378     19381     19384     19381     19384     19386     19387
     19381     19384     19386     19388     19382     19381     19384     19385
     19382     19381     19384     19386     19383     19381     19384     19385
     19383     19381     19384     19386     19384     19386     19388     19389
     19384     19386     19388     19390     19384     19386     19388     19391
     19385     19384     19386     19387     19385     19384     19386     19388
     19386     19388     19391     19392     19386     19388     19391     19393
     19387     19386     19388     19389     19387     19386     19388     19390
     19387     19386     19388     19391     19388     19391     19393     19394
     19388     19391     19393     19395     19389     19388     19391     19392
     19389     19388     19391     19393     19390     19388     19391     19392
     19390     19388     19391     19393     19391     19393     19395     19396
     19391     19393     19395     19397     19391     19393     19395     19398
     19392     19391     19393     19394     19392     19391     19393     19395
     19393     19395     19398     19399     19393     19395     19398     19400
     19394     19393     19395     19396     19394     19393     19395     19397
     19394     19393     19395     19398     19395     19398     19400     19401
     19395     19398     19400     19402     19396     19395     19398     19399
     19396     19395     19398     19400     19397     19395     19398     19399
     19397     19395     19398     19400     19398     19400     19402     19403
     19398     19400     19402     19404     19398     19400     19402     19405
     19399     19398     19400     19401     19399     19398     19400     19402
     19400     19402     19405     19406     19400     19402     19405     19407
     19401     19400     19402     19403     19401     19400     19402     19404
     19401     19400     19402     19405     19402     19405     19407     19408
     19402     19405     19407     19409     19403     19402     19405     19406
     19403     19402     19405     19407     19404     19402     19405     19406
     19404     19402     19405     19407     19405     19407     19409     19410
     19405     19407     19409     19411     19405     19407     19409     19412
     19406     19405     19407     19408     19406     19405     19407     19409
     19407     19409     19412     19413     19407     19409     19412     19414
     19407     19409     19412     19415     19408     19407     19409     19410
     19408     19407     19409     19411     19408     19407     19409     19412
     19409     19412     19415     19416     19409     19412     19415     19417
     19409     19412     19415     19418     19410     19409     19412     19413
     19410     19409     19412     19414     19410     19409     19412     19415
     19411     19409     19412     19413     19411     19409     19412     19414
     19411     19409     19412     19415     19412     19415     19418     19419
     19412     19415     19418     19420     19412     19415     19418     19421
     19413     19412     19415     19416     19413     19412     19415     19417
     19413     19412     19415     19418     19414     19412     19415     19416
     19414     19412     19415     19417     19414     19412     19415     19418
     19415     19418     19421     19422     19415     19418     19421     19423
     19415     19418     19421     19424     19416     19415     19418     19419
     19416     19415     19418     19420     19416     19415     19418     19421
     19417     19415     19418     19419     19417     19415     19418     19420
     19417     19415     19418     19421     19419     19418     19421     19422
     19419     19418     19421     19423     19419     19418     19421     19424
     19420     19418     19421     19422     19420     19418     19421     19423
     19420     19418     19421     19424     19425     19428     19431     19432
     19425     19428     19431     19433     19425     19428     19431     19434
     19426     19425     19428     19429     19426     19425     19428     19430
     19426     19425     19428     19431     19427     19425     19428     19429
     19427     19425     19428     19430     19427     19425     19428     19431
     19428     19431     19434     19435     19428     19431     19434     19436
     19428     19431     19434     19437     19429     19428     19431     19432
     19429     19428     19431     19433     19429     19428     19431     19434
     19430     19428     19431     19432     19430     19428     19431     19433
     19430     19428     19431     19434     19431     19434     19437     19438
     19431     19434     19437     19439     19431     19434     19437     19440
     19432     19431     19434     19435     19432     19431     19434     19436
     19432     19431     19434     19437     19433     19431     19434     19435
     19433     19431     19434     19436     19433     19431     19434     19437
     19434     19437     19440     19441     19434     19437     19440     19442
     19434     19437     19440     19443     19435     19434     19437     19438
     19435     19434     19437     19439     19435     19434     19437     19440
     19436     19434     19437     19438     19436     19434     19437     19439
     19436     19434     19437     19440     19437     19440     19443     19444
     19437     19440     19443     19445     19437     19440     19443     19446
     19438     19437     19440     19441     19438     19437     19440     19442
     19438     19437     19440     19443     19439     19437     19440     19441
     19439     19437     19440     19442     19439     19437     19440     19443
     19440     19443     19446     19447     19440     19443     19446     19448
     19440     19443     19446     19449     19441     19440     19443     19444
     19441     19440     19443     19445     19441     19440     19443     19446
     19442     19440     19443     19444     19442     19440     19443     19445
     19442     19440     19443     19446     19443     19446     19449     19450
     19443     19446     19449     19451     19443     19446     19449     19452
     19444     19443     19446     19447     19444     19443     19446     19448
     19444     19443     19446     19449     19445     19443     19446     19447
     19445     19443     19446     19448     19445     19443     19446     19449
     19446     19449     19452     19453     19446     19449     19452     19454
     19446     19449     19452     19455     19447     19446     19449     19450
     19447     19446     19449     19451     19447     19446     19449     19452
     19448     19446     19449     19450     19448     19446     19449     19451
     19448     19446     19449     19452     19449     19452     19455     19456
     19449     19452     19455     19457     19449     19452     19455     19458
     19450     19449     19452     19453     19450     19449     19452     19454
     19450     19449     19452     19455     19451     19449     19452     19453
     19451     19449     19452     19454     19451     19449     19452     19455
     19452     19455     19458     19459     19452     19455     19458     19460
     19452     19455     19458     19461     19453     19452     19455     19456
     19453     19452     19455     19457     19453     19452     19455     19458
     19454     19452     19455     19456     19454     19452     19455     19457
     19454     19452     19455     19458     19455     19458     19461     19462
     19455     19458     19461     19463     19455     19458     19461     19464
     19456     19455     19458     19459     19456     19455     19458     19460
     19456     19455     19458     19461     19457     19455     19458     19459
     19457     19455     19458     19460     19457     19455     19458     19461
     19458     19461     19464     19465     19458     19461     19464     19466
     19458     19461     19464     19467     19459     19458     19461     19462
     19459     19458     19461     19463     19459     19458     19461     19464
     19460     19458     19461     19462     19460     19458     19461     19463
     19460     19458     19461     19464     19461     19464     19467     19468
     19461     19464     19467     19469     19461     19464     19467     19470
     19462     19461     19464     19465     19462     19461     19464     19466
     19462     19461     19464     19467     19463     19461     19464     19465
     19463     19461     19464     19466     19463     19461     19464     19467
     19464     19467     19470     19471     19464     19467     19470     19472
     19464     19467     19470     19473     19465     19464     19467     19468
     19465     19464     19467     19469     19465     19464     19467     19470
     19466     19464     19467     19468     19466     19464     19467     19469
     19466     19464     19467     19470     19468     19467     19470     19471
     19468     19467     19470     19472     19468     19467     19470     19473
     19469     19467     19470     19471     19469     19467     19470     19472
     19469     19467     19470     19473     19474     19478     19481     19482
     19474     19478     19481     19483     19474     19478     19481     19487
     19475     19474     19478     19479     19475     19474     19478     19480
     19475     19474     19478     19481     19476     19474     19478     19479
     19476     19474     19478     19480     19476     19474     19478     19481
     19477     19474     19478     19479     19477     19474     19478     19480
     19477     19474     19478     19481     19478     19481     19487     19484
     19479     19478     19481     19482     19479     19478     19481     19483
     19479     19478     19481     19487     19480     19478     19481     19482
     19480     19478     19481     19483     19480     19478     19481     19487
     19481     19487     19484     19485     19481     19487     19484     19486
     19481     19487     19484     19488     19482     19481     19487     19484
     19483     19481     19487     19484     19484     19488     19489     19490
     19484     19488     19489     19491     19484     19488     19489     19492
     19485     19484     19488     19489     19486     19484     19488     19489
     19487     19484     19488     19489     19488     19489     19492     19493
     19488     19489     19492     19494     19488     19489     19492     19500
     19489     19492     19494     19495     19489     19492     19500     19501
     19489     19492     19500     19502     19489     19492     19500     19503
     19490     19489     19492     19493     19490     19489     19492     19494
     19490     19489     19492     19500     19491     19489     19492     19493
     19491     19489     19492     19494     19491     19489     19492     19500
     19492     19494     19495     19496     19492     19494     19495     19497
     19492     19500     19503     19504     19493     19492     19494     19495
     19493     19492     19500     19501     19493     19492     19500     19502
     19493     19492     19500     19503     19494     19492     19500     19501
     19494     19492     19500     19502     19494     19492     19500     19503
     19494     19495     19497     19498     19494     19495     19497     19499
     19494     19495     19497     19509     19495     19494     19492     19500
     19495     19497     19509     19510     19495     19497     19509     19511
     19495     19497     19509     19512     19496     19495     19497     19498
     19496     19495     19497     19499     19496     19495     19497     19509
     19497     19509     19512     19513     19497     19509     19512     19514
     19497     19509     19512     19515     19498     19497     19509     19510
     19498     19497     19509     19511     19498     19497     19509     19512
     19499     19497     19509     19510     19499     19497     19509     19511
     19499     19497     19509     19512     19500     19503     19504     19505
     19500     19503     19504     19506     19501     19500     19503     19504
     19502     19500     19503     19504     19503     19504     19506     19507
     19503     19504     19506     19508     19503     19504     19506     19556
     19504     19506     19556     19557     19504     19506     19556     19558
     19504     19506     19556     19559     19505     19504     19506     19507
     19505     19504     19506     19508     19505     19504     19506     19556
     19506     19556     19559     19560     19506     19556     19559     19561
     19506     19556     19559     19562     19507     19506     19556     19557
     19507     19506     19556     19558     19507     19506     19556     19559
     19508     19506     19556     19557     19508     19506     19556     19558
     19508     19506     19556     19559     19509     19512     19515     19516
     19509     19512     19515     19517     19509     19512     19515     19518
     19510     19509     19512     19513     19510     19509     19512     19514
     19510     19509     19512     19515     19511     19509     19512     19513
     19511     19509     19512     19514     19511     19509     19512     19515
     19512     19515     19518     19519     19512     19515     19518     19520
     19512     19515     19518     19521     19513     19512     19515     19516
     19513     19512     19515     19517     19513     19512     19515     19518
     19514     19512     19515     19516     19514     19512     19515     19517
     19514     19512     19515     19518     19515     19518     19521     19522
     19515     19518     19521     19523     19515     19518     19521     19524
     19516     19515     19518     19519     19516     19515     19518     19520
     19516     19515     19518     19521     19517     19515     19518     19519
     19517     19515     19518     19520     19517     19515     19518     19521
     19518     19521     19524     19525     19518     19521     19524     19526
     19518     19521     19524     19527     19519     19518     19521     19522
     19519     19518     19521     19523     19519     19518     19521     19524
     19520     19518     19521     19522     19520     19518     19521     19523
     19520     19518     19521     19524     19521     19524     19527     19528
     19521     19524     19527     19529     19522     19521     19524     19525
     19522     19521     19524     19526     19522     19521     19524     19527
     19523     19521     19524     19525     19523     19521     19524     19526
     19523     19521     19524     19527     19524     19527     19529     19530
     19524     19527     19529     19531     19525     19524     19527     19528
     19525     19524     19527     19529     19526     19524     19527     19528
     19526     19524     19527     19529     19527     19529     19531     19532
     19527     19529     19531     19533     19527     19529     19531     19534
     19528     19527     19529     19530     19528     19527     19529     19531
     19529     19531     19534     19535     19529     19531     19534     19536
     19529     19531     19534     19537     19530     19529     19531     19532
     19530     19529     19531     19533     19530     19529     19531     19534
     19531     19534     19537     19538     19531     19534     19537     19539
     19531     19534     19537     19540     19532     19531     19534     19535
     19532     19531     19534     19536     19532     19531     19534     19537
     19533     19531     19534     19535     19533     19531     19534     19536
     19533     19531     19534     19537     19534     19537     19540     19541
     19534     19537     19540     19542     19534     19537     19540     19543
     19535     19534     19537     19538     19535     19534     19537     19539
     19535     19534     19537     19540     19536     19534     19537     19538
     19536     19534     19537     19539     19536     19534     19537     19540
     19537     19540     19543     19544     19537     19540     19543     19545
     19537     19540     19543     19546     19538     19537     19540     19541
     19538     19537     19540     19542     19538     19537     19540     19543
     19539     19537     19540     19541     19539     19537     19540     19542
     19539     19537     19540     19543     19540     19543     19546     19547
     19540     19543     19546     19548     19540     19543     19546     19549
     19541     19540     19543     19544     19541     19540     19543     19545
     19541     19540     19543     19546     19542     19540     19543     19544
     19542     19540     19543     19545     19542     19540     19543     19546
     19543     19546     19549     19550     19543     19546     19549     19551
     19543     19546     19549     19552     19544     19543     19546     19547
     19544     19543     19546     19548     19544     19543     19546     19549
     19545     19543     19546     19547     19545     19543     19546     19548
     19545     19543     19546     19549     19546     19549     19552     19553
     19546     19549     19552     19554     19546     19549     19552     19555
     19547     19546     19549     19550     19547     19546     19549     19551
     19547     19546     19549     19552     19548     19546     19549     19550
     19548     19546     19549     19551     19548     19546     19549     19552
     19550     19549     19552     19553     19550     19549     19552     19554
     19550     19549     19552     19555     19551     19549     19552     19553
     19551     19549     19552     19554     19551     19549     19552     19555
     19556     19559     19562     19563     19556     19559     19562     19564
     19556     19559     19562     19565     19557     19556     19559     19560
     19557     19556     19559     19561     19557     19556     19559     19562
     19558     19556     19559     19560     19558     19556     19559     19561
     19558     19556     19559     19562     19559     19562     19565     19566
     19559     19562     19565     19567     19559     19562     19565     19568
     19560     19559     19562     19563     19560     19559     19562     19564
     19560     19559     19562     19565     19561     19559     19562     19563
     19561     19559     19562     19564     19561     19559     19562     19565
     19562     19565     19568     19569     19562     19565     19568     19570
     19562     19565     19568     19571     19563     19562     19565     19566
     19563     19562     19565     19567     19563     19562     19565     19568
     19564     19562     19565     19566     19564     19562     19565     19567
     19564     19562     19565     19568     19565     19568     19571     19572
     19565     19568     19571     19573     19565     19568     19571     19574
     19566     19565     19568     19569     19566     19565     19568     19570
     19566     19565     19568     19571     19567     19565     19568     19569
     19567     19565     19568     19570     19567     19565     19568     19571
     19568     19571     19574     19575     19568     19571     19574     19576
     19568     19571     19574     19577     19569     19568     19571     19572
     19569     19568     19571     19573     19569     19568     19571     19574
     19570     19568     19571     19572     19570     19568     19571     19573
     19570     19568     19571     19574     19571     19574     19577     19578
     19571     19574     19577     19579     19571     19574     19577     19580
     19572     19571     19574     19575     19572     19571     19574     19576
     19572     19571     19574     19577     19573     19571     19574     19575
     19573     19571     19574     19576     19573     19571     19574     19577
     19574     19577     19580     19581     19574     19577     19580     19582
     19574     19577     19580     19583     19575     19574     19577     19578
     19575     19574     19577     19579     19575     19574     19577     19580
     19576     19574     19577     19578     19576     19574     19577     19579
     19576     19574     19577     19580     19577     19580     19583     19584
     19577     19580     19583     19585     19577     19580     19583     19586
     19578     19577     19580     19581     19578     19577     19580     19582
     19578     19577     19580     19583     19579     19577     19580     19581
     19579     19577     19580     19582     19579     19577     19580     19583
     19580     19583     19586     19587     19580     19583     19586     19588
     19580     19583     19586     19589     19581     19580     19583     19584
     19581     19580     19583     19585     19581     19580     19583     19586
     19582     19580     19583     19584     19582     19580     19583     19585
     19582     19580     19583     19586     19583     19586     19589     19590
     19583     19586     19589     19591     19583     19586     19589     19592
     19584     19583     19586     19587     19584     19583     19586     19588
     19584     19583     19586     19589     19585     19583     19586     19587
     19585     19583     19586     19588     19585     19583     19586     19589
     19586     19589     19592     19593     19586     19589     19592     19594
     19586     19589     19592     19595     19587     19586     19589     19590
     19587     19586     19589     19591     19587     19586     19589     19592
     19588     19586     19589     19590     19588     19586     19589     19591
     19588     19586     19589     19592     19589     19592     19595     19596
     19589     19592     19595     19597     19589     19592     19595     19598
     19590     19589     19592     19593     19590     19589     19592     19594
     19590     19589     19592     19595     19591     19589     19592     19593
     19591     19589     19592     19594     19591     19589     19592     19595
     19592     19595     19598     19599     19592     19595     19598     19600
     19592     19595     19598     19601     19593     19592     19595     19596
     19593     19592     19595     19597     19593     19592     19595     19598
     19594     19592     19595     19596     19594     19592     19595     19597
     19594     19592     19595     19598     19595     19598     19601     19602
     19595     19598     19601     19603     19595     19598     19601     19604
     19596     19595     19598     19599     19596     19595     19598     19600
     19596     19595     19598     19601     19597     19595     19598     19599
     19597     19595     19598     19600     19597     19595     19598     19601
     19599     19598     19601     19602     19599     19598     19601     19603
     19599     19598     19601     19604     19600     19598     19601     19602
     19600     19598     19601     19603     19600     19598     19601     19604
     19605     19618     19621     19622     19605     19618     19621     19623
     19605     19618     19621     19627     19606     19605     19610     19611
     19606     19605     19610     19612     19606     19605     19610     19613
     19606     19605     19614     19615     19606     19605     19614     19616
     19606     19605     19614     19617     19606     19605     19618     19619
     19606     19605     19618     19620     19606     19605     19618     19621
     19607     19606     19605     19610     19607     19606     19605     19614
     19607     19606     19605     19618     19608     19606     19605     19610
     19608     19606     19605     19614     19608     19606     19605     19618
     19609     19606     19605     19610     19609     19606     19605     19614
     19609     19606     19605     19618     19610     19605     19614     19615
     19610     19605     19614     19616     19610     19605     19614     19617
     19610     19605     19618     19619     19610     19605     19618     19620
     19610     19605     19618     19621     19611     19610     19605     19614
     19611     19610     19605     19618     19612     19610     19605     19614
     19612     19610     19605     19618     19613     19610     19605     19614
     19613     19610     19605     19618     19614     19605     19618     19619
     19614     19605     19618     19620     19614     19605     19618     19621
     19615     19614     19605     19618     19616     19614     19605     19618
     19617     19614     19605     19618     19618     19621     19627     19624
     19619     19618     19621     19622     19619     19618     19621     19623
     19619     19618     19621     19627     19620     19618     19621     19622
     19620     19618     19621     19623     19620     19618     19621     19627
     19621     19627     19624     19625     19621     19627     19624     19626
     19621     19627     19624     19628     19622     19621     19627     19624
     19623     19621     19627     19624     19624     19628     19629     19630
     19624     19628     19629     19631     19624     19628     19629     19632
     19625     19624     19628     19629     19626     19624     19628     19629
     19627     19624     19628     19629     19628     19629     19632     19633
     19628     19629     19632     19634     19628     19629     19632     19640
     19629     19632     19634     19635     19629     19632     19640     19641
     19629     19632     19640     19642     19629     19632     19640     19643
     19630     19629     19632     19633     19630     19629     19632     19634
     19630     19629     19632     19640     19631     19629     19632     19633
     19631     19629     19632     19634     19631     19629     19632     19640
     19632     19634     19635     19636     19632     19634     19635     19637
     19632     19640     19643     19644     19633     19632     19634     19635
     19633     19632     19640     19641     19633     19632     19640     19642
     19633     19632     19640     19643     19634     19632     19640     19641
     19634     19632     19640     19642     19634     19632     19640     19643
     19634     19635     19637     19638     19634     19635     19637     19639
     19634     19635     19637     19649     19635     19634     19632     19640
     19635     19637     19649     19650     19635     19637     19649     19651
     19635     19637     19649     19652     19636     19635     19637     19638
     19636     19635     19637     19639     19636     19635     19637     19649
     19637     19649     19652     19653     19637     19649     19652     19654
     19637     19649     19652     19655     19638     19637     19649     19650
     19638     19637     19649     19651     19638     19637     19649     19652
     19639     19637     19649     19650     19639     19637     19649     19651
     19639     19637     19649     19652     19640     19643     19644     19645
     19640     19643     19644     19646     19641     19640     19643     19644
     19642     19640     19643     19644     19643     19644     19646     19647
     19643     19644     19646     19648     19643     19644     19646     19694
     19644     19646     19694     19695     19644     19646     19694     19696
     19644     19646     19694     19697     19645     19644     19646     19647
     19645     19644     19646     19648     19645     19644     19646     19694
     19646     19694     19697     19698     19646     19694     19697     19699
     19646     19694     19697     19700     19647     19646     19694     19695
     19647     19646     19694     19696     19647     19646     19694     19697
     19648     19646     19694     19695     19648     19646     19694     19696
     19648     19646     19694     19697     19649     19652     19655     19656
     19649     19652     19655     19657     19649     19652     19655     19658
     19650     19649     19652     19653     19650     19649     19652     19654
     19650     19649     19652     19655     19651     19649     19652     19653
     19651     19649     19652     19654     19651     19649     19652     19655
     19652     19655     19658     19659     19652     19655     19658     19660
     19652     19655     19658     19661     19653     19652     19655     19656
     19653     19652     19655     19657     19653     19652     19655     19658
     19654     19652     19655     19656     19654     19652     19655     19657
     19654     19652     19655     19658     19655     19658     19661     19662
     19655     19658     19661     19663     19655     19658     19661     19664
     19656     19655     19658     19659     19656     19655     19658     19660
     19656     19655     19658     19661     19657     19655     19658     19659
     19657     19655     19658     19660     19657     19655     19658     19661
     19658     19661     19664     19665     19658     19661     19664     19666
     19658     19661     19664     19667     19659     19658     19661     19662
     19659     19658     19661     19663     19659     19658     19661     19664
     19660     19658     19661     19662     19660     19658     19661     19663
     19660     19658     19661     19664     19661     19664     19667     19668
     19661     19664     19667     19669     19662     19661     19664     19665
     19662     19661     19664     19666     19662     19661     19664     19667
     19663     19661     19664     19665     19663     19661     19664     19666
     19663     19661     19664     19667     19664     19667     19669     19670
     19664     19667     19669     19671     19665     19664     19667     19668
     19665     19664     19667     19669     19666     19664     19667     19668
     19666     19664     19667     19669     19667     19669     19671     19672
     19667     19669     19671     19673     19667     19669     19671     19674
     19668     19667     19669     19670     19668     19667     19669     19671
     19669     19671     19674     19675     19669     19671     19674     19676
     19670     19669     19671     19672     19670     19669     19671     19673
     19670     19669     19671     19674     19671     19674     19676     19677
     19671     19674     19676     19678     19672     19671     19674     19675
     19672     19671     19674     19676     19673     19671     19674     19675
     19673     19671     19674     19676     19674     19676     19678     19679
     19674     19676     19678     19680     19674     19676     19678     19681
     19675     19674     19676     19677     19675     19674     19676     19678
     19676     19678     19681     19682     19676     19678     19681     19683
     19676     19678     19681     19684     19677     19676     19678     19679
     19677     19676     19678     19680     19677     19676     19678     19681
     19678     19681     19684     19685     19678     19681     19684     19686
     19678     19681     19684     19687     19679     19678     19681     19682
     19679     19678     19681     19683     19679     19678     19681     19684
     19680     19678     19681     19682     19680     19678     19681     19683
     19680     19678     19681     19684     19681     19684     19687     19688
     19681     19684     19687     19689     19681     19684     19687     19690
     19682     19681     19684     19685     19682     19681     19684     19686
     19682     19681     19684     19687     19683     19681     19684     19685
     19683     19681     19684     19686     19683     19681     19684     19687
     19684     19687     19690     19691     19684     19687     19690     19692
     19684     19687     19690     19693     19685     19684     19687     19688
     19685     19684     19687     19689     19685     19684     19687     19690
     19686     19684     19687     19688     19686     19684     19687     19689
     19686     19684     19687     19690     19688     19687     19690     19691
     19688     19687     19690     19692     19688     19687     19690     19693
     19689     19687     19690     19691     19689     19687     19690     19692
     19689     19687     19690     19693     19694     19697     19700     19701
     19694     19697     19700     19702     19694     19697     19700     19703
     19695     19694     19697     19698     19695     19694     19697     19699
     19695     19694     19697     19700     19696     19694     19697     19698
     19696     19694     19697     19699     19696     19694     19697     19700
     19697     19700     19703     19704     19697     19700     19703     19705
     19697     19700     19703     19706     19698     19697     19700     19701
     19698     19697     19700     19702     19698     19697     19700     19703
     19699     19697     19700     19701     19699     19697     19700     19702
     19699     19697     19700     19703     19700     19703     19706     19707
     19700     19703     19706     19708     19700     19703     19706     19709
     19701     19700     19703     19704     19701     19700     19703     19705
     19701     19700     19703     19706     19702     19700     19703     19704
     19702     19700     19703     19705     19702     19700     19703     19706
     19703     19706     19709     19710     19703     19706     19709     19711
     19703     19706     19709     19712     19704     19703     19706     19707
     19704     19703     19706     19708     19704     19703     19706     19709
     19705     19703     19706     19707     19705     19703     19706     19708
     19705     19703     19706     19709     19706     19709     19712     19713
     19706     19709     19712     19714     19706     19709     19712     19715
     19707     19706     19709     19710     19707     19706     19709     19711
     19707     19706     19709     19712     19708     19706     19709     19710
     19708     19706     19709     19711     19708     19706     19709     19712
     19709     19712     19715     19716     19709     19712     19715     19717
     19709     19712     19715     19718     19710     19709     19712     19713
     19710     19709     19712     19714     19710     19709     19712     19715
     19711     19709     19712     19713     19711     19709     19712     19714
     19711     19709     19712     19715     19712     19715     19718     19719
     19712     19715     19718     19720     19712     19715     19718     19721
     19713     19712     19715     19716     19713     19712     19715     19717
     19713     19712     19715     19718     19714     19712     19715     19716
     19714     19712     19715     19717     19714     19712     19715     19718
     19715     19718     19721     19722     19715     19718     19721     19723
     19715     19718     19721     19724     19716     19715     19718     19719
     19716     19715     19718     19720     19716     19715     19718     19721
     19717     19715     19718     19719     19717     19715     19718     19720
     19717     19715     19718     19721     19718     19721     19724     19725
     19718     19721     19724     19726     19718     19721     19724     19727
     19719     19718     19721     19722     19719     19718     19721     19723
     19719     19718     19721     19724     19720     19718     19721     19722
     19720     19718     19721     19723     19720     19718     19721     19724
     19721     19724     19727     19728     19721     19724     19727     19729
     19721     19724     19727     19730     19722     19721     19724     19725
     19722     19721     19724     19726     19722     19721     19724     19727
     19723     19721     19724     19725     19723     19721     19724     19726
     19723     19721     19724     19727     19724     19727     19730     19731
     19724     19727     19730     19732     19724     19727     19730     19733
     19725     19724     19727     19728     19725     19724     19727     19729
     19725     19724     19727     19730     19726     19724     19727     19728
     19726     19724     19727     19729     19726     19724     19727     19730
     19727     19730     19733     19734     19727     19730     19733     19735
     19727     19730     19733     19736     19728     19727     19730     19731
     19728     19727     19730     19732     19728     19727     19730     19733
     19729     19727     19730     19731     19729     19727     19730     19732
     19729     19727     19730     19733     19730     19733     19736     19737
     19730     19733     19736     19738     19730     19733     19736     19739
     19731     19730     19733     19734     19731     19730     19733     19735
     19731     19730     19733     19736     19732     19730     19733     19734
     19732     19730     19733     19735     19732     19730     19733     19736
     19733     19736     19739     19740     19733     19736     19739     19741
     19733     19736     19739     19742     19734     19733     19736     19737
     19734     19733     19736     19738     19734     19733     19736     19739
     19735     19733     19736     19737     19735     19733     19736     19738
     19735     19733     19736     19739     19737     19736     19739     19740
     19737     19736     19739     19741     19737     19736     19739     19742
     19738     19736     19739     19740     19738     19736     19739     19741
     19738     19736     19739     19742     19743     19744     19759     19760
     19743     19744     19759     19761     19743     19744     19759     19765
     19744     19743     19747     19748     19744     19743     19747     19749
     19744     19743     19747     19750     19744     19743     19751     19752
     19744     19743     19751     19753     19744     19743     19751     19754
     19744     19743     19755     19756     19744     19743     19755     19757
     19744     19743     19755     19758     19744     19759     19765     19762
     19745     19744     19743     19747     19745     19744     19743     19751
     19745     19744     19743     19755     19745     19744     19759     19760
     19745     19744     19759     19761     19745     19744     19759     19765
     19746     19744     19743     19747     19746     19744     19743     19751
     19746     19744     19743     19755     19746     19744     19759     19760
     19746     19744     19759     19761     19746     19744     19759     19765
     19747     19743     19744     19759     19747     19743     19751     19752
     19747     19743     19751     19753     19747     19743     19751     19754
     19747     19743     19755     19756     19747     19743     19755     19757
     19747     19743     19755     19758     19748     19747     19743     19751
     19748     19747     19743     19755     19749     19747     19743     19751
     19749     19747     19743     19755     19750     19747     19743     19751
     19750     19747     19743     19755     19751     19743     19744     19759
     19751     19743     19755     19756     19751     19743     19755     19757
     19751     19743     19755     19758     19752     19751     19743     19755
     19753     19751     19743     19755     19754     19751     19743     19755
     19755     19743     19744     19759     19759     19765     19762     19763
     19759     19765     19762     19764     19759     19765     19762     19766
     19760     19759     19765     19762     19761     19759     19765     19762
     19762     19766     19767     19768     19762     19766     19767     19769
     19762     19766     19767     19770     19763     19762     19766     19767
     19764     19762     19766     19767     19765     19762     19766     19767
     19766     19767     19770     19771     19766     19767     19770     19772
     19766     19767     19770     19778     19767     19770     19772     19773
     19767     19770     19778     19779     19767     19770     19778     19780
     19767     19770     19778     19781     19768     19767     19770     19771
     19768     19767     19770     19772     19768     19767     19770     19778
     19769     19767     19770     19771     19769     19767     19770     19772
     19769     19767     19770     19778     19770     19772     19773     19774
     19770     19772     19773     19775     19770     19778     19781     19782
     19771     19770     19772     19773     19771     19770     19778     19779
     19771     19770     19778     19780     19771     19770     19778     19781
     19772     19770     19778     19779     19772     19770     19778     19780
     19772     19770     19778     19781     19772     19773     19775     19776
     19772     19773     19775     19777     19772     19773     19775     19787
     19773     19772     19770     19778     19773     19775     19787     19788
     19773     19775     19787     19789     19773     19775     19787     19790
     19774     19773     19775     19776     19774     19773     19775     19777
     19774     19773     19775     19787     19775     19787     19790     19791
     19775     19787     19790     19792     19775     19787     19790     19793
     19776     19775     19787     19788     19776     19775     19787     19789
     19776     19775     19787     19790     19777     19775     19787     19788
     19777     19775     19787     19789     19777     19775     19787     19790
     19778     19781     19782     19783     19778     19781     19782     19784
     19779     19778     19781     19782     19780     19778     19781     19782
     19781     19782     19784     19785     19781     19782     19784     19786
     19781     19782     19784     19834     19782     19784     19834     19835
     19782     19784     19834     19836     19782     19784     19834     19837
     19783     19782     19784     19785     19783     19782     19784     19786
     19783     19782     19784     19834     19784     19834     19837     19838
     19784     19834     19837     19839     19784     19834     19837     19840
     19785     19784     19834     19835     19785     19784     19834     19836
     19785     19784     19834     19837     19786     19784     19834     19835
     19786     19784     19834     19836     19786     19784     19834     19837
     19787     19790     19793     19794     19787     19790     19793     19795
     19788     19787     19790     19791     19788     19787     19790     19792
     19788     19787     19790     19793     19789     19787     19790     19791
     19789     19787     19790     19792     19789     19787     19790     19793
     19790     19793     19795     19796     19790     19793     19795     19797
     19791     19790     19793     19794     19791     19790     19793     19795
     19792     19790     19793     19794     19792     19790     19793     19795
     19793     19795     19797     19798     19793     19795     19797     19799
     19793     19795     19797     19800     19794     19793     19795     19796
     19794     19793     19795     19797     19795     19797     19800     19801
     19795     19797     19800     19802     19796     19795     19797     19798
     19796     19795     19797     19799     19796     19795     19797     19800
     19797     19800     19802     19803     19797     19800     19802     19804
     19798     19797     19800     19801     19798     19797     19800     19802
     19799     19797     19800     19801     19799     19797     19800     19802
     19800     19802     19804     19805     19800     19802     19804     19806
     19800     19802     19804     19807     19801     19800     19802     19803
     19801     19800     19802     19804     19802     19804     19807     19808
     19802     19804     19807     19809     19803     19802     19804     19805
     19803     19802     19804     19806     19803     19802     19804     19807
     19804     19807     19809     19810     19804     19807     19809     19811
     19805     19804     19807     19808     19805     19804     19807     19809
     19806     19804     19807     19808     19806     19804     19807     19809
     19807     19809     19811     19812     19807     19809     19811     19813
     19807     19809     19811     19814     19808     19807     19809     19810
     19808     19807     19809     19811     19809     19811     19814     19815
     19809     19811     19814     19816     19810     19809     19811     19812
     19810     19809     19811     19813     19810     19809     19811     19814
     19811     19814     19816     19817     19811     19814     19816     19818
     19812     19811     19814     19815     19812     19811     19814     19816
     19813     19811     19814     19815     19813     19811     19814     19816
     19814     19816     19818     19819     19814     19816     19818     19820
     19814     19816     19818     19821     19815     19814     19816     19817
     19815     19814     19816     19818     19816     19818     19821     19822
     19816     19818     19821     19823     19816     19818     19821     19824
     19817     19816     19818     19819     19817     19816     19818     19820
     19817     19816     19818     19821     19818     19821     19824     19825
     19818     19821     19824     19826     19818     19821     19824     19827
     19819     19818     19821     19822     19819     19818     19821     19823
     19819     19818     19821     19824     19820     19818     19821     19822
     19820     19818     19821     19823     19820     19818     19821     19824
     19821     19824     19827     19828     19821     19824     19827     19829
     19821     19824     19827     19830     19822     19821     19824     19825
     19822     19821     19824     19826     19822     19821     19824     19827
     19823     19821     19824     19825     19823     19821     19824     19826
     19823     19821     19824     19827     19824     19827     19830     19831
     19824     19827     19830     19832     19824     19827     19830     19833
     19825     19824     19827     19828     19825     19824     19827     19829
     19825     19824     19827     19830     19826     19824     19827     19828
     19826     19824     19827     19829     19826     19824     19827     19830
     19828     19827     19830     19831     19828     19827     19830     19832
     19828     19827     19830     19833     19829     19827     19830     19831
     19829     19827     19830     19832     19829     19827     19830     19833
     19834     19837     19840     19841     19834     19837     19840     19842
     19834     19837     19840     19843     19835     19834     19837     19838
     19835     19834     19837     19839     19835     19834     19837     19840
     19836     19834     19837     19838     19836     19834     19837     19839
     19836     19834     19837     19840     19837     19840     19843     19844
     19837     19840     19843     19845     19837     19840     19843     19846
     19838     19837     19840     19841     19838     19837     19840     19842
     19838     19837     19840     19843     19839     19837     19840     19841
     19839     19837     19840     19842     19839     19837     19840     19843
     19840     19843     19846     19847     19840     19843     19846     19848
     19840     19843     19846     19849     19841     19840     19843     19844
     19841     19840     19843     19845     19841     19840     19843     19846
     19842     19840     19843     19844     19842     19840     19843     19845
     19842     19840     19843     19846     19843     19846     19849     19850
     19843     19846     19849     19851     19843     19846     19849     19852
     19844     19843     19846     19847     19844     19843     19846     19848
     19844     19843     19846     19849     19845     19843     19846     19847
     19845     19843     19846     19848     19845     19843     19846     19849
     19846     19849     19852     19853     19846     19849     19852     19854
     19846     19849     19852     19855     19847     19846     19849     19850
     19847     19846     19849     19851     19847     19846     19849     19852
     19848     19846     19849     19850     19848     19846     19849     19851
     19848     19846     19849     19852     19849     19852     19855     19856
     19849     19852     19855     19857     19849     19852     19855     19858
     19850     19849     19852     19853     19850     19849     19852     19854
     19850     19849     19852     19855     19851     19849     19852     19853
     19851     19849     19852     19854     19851     19849     19852     19855
     19852     19855     19858     19859     19852     19855     19858     19860
     19852     19855     19858     19861     19853     19852     19855     19856
     19853     19852     19855     19857     19853     19852     19855     19858
     19854     19852     19855     19856     19854     19852     19855     19857
     19854     19852     19855     19858     19855     19858     19861     19862
     19855     19858     19861     19863     19855     19858     19861     19864
     19856     19855     19858     19859     19856     19855     19858     19860
     19856     19855     19858     19861     19857     19855     19858     19859
     19857     19855     19858     19860     19857     19855     19858     19861
     19858     19861     19864     19865     19858     19861     19864     19866
     19858     19861     19864     19867     19859     19858     19861     19862
     19859     19858     19861     19863     19859     19858     19861     19864
     19860     19858     19861     19862     19860     19858     19861     19863
     19860     19858     19861     19864     19861     19864     19867     19868
     19861     19864     19867     19869     19861     19864     19867     19870
     19862     19861     19864     19865     19862     19861     19864     19866
     19862     19861     19864     19867     19863     19861     19864     19865
     19863     19861     19864     19866     19863     19861     19864     19867
     19864     19867     19870     19871     19864     19867     19870     19872
     19864     19867     19870     19873     19865     19864     19867     19868
     19865     19864     19867     19869     19865     19864     19867     19870
     19866     19864     19867     19868     19866     19864     19867     19869
     19866     19864     19867     19870     19867     19870     19873     19874
     19867     19870     19873     19875     19867     19870     19873     19876
     19868     19867     19870     19871     19868     19867     19870     19872
     19868     19867     19870     19873     19869     19867     19870     19871
     19869     19867     19870     19872     19869     19867     19870     19873
     19870     19873     19876     19877     19870     19873     19876     19878
     19870     19873     19876     19879     19871     19870     19873     19874
     19871     19870     19873     19875     19871     19870     19873     19876
     19872     19870     19873     19874     19872     19870     19873     19875
     19872     19870     19873     19876     19873     19876     19879     19880
     19873     19876     19879     19881     19873     19876     19879     19882
     19874     19873     19876     19877     19874     19873     19876     19878
     19874     19873     19876     19879     19875     19873     19876     19877
     19875     19873     19876     19878     19875     19873     19876     19879
     19877     19876     19879     19880     19877     19876     19879     19881
     19877     19876     19879     19882     19878     19876     19879     19880
     19878     19876     19879     19881     19878     19876     19879     19882
     19883     19896     19899     19900     19883     19896     19899     19901
     19883     19896     19899     19905     19884     19883     19888     19889
     19884     19883     19888     19890     19884     19883     19888     19891
     19884     19883     19892     19893     19884     19883     19892     19894
     19884     19883     19892     19895     19884     19883     19896     19897
     19884     19883     19896     19898     19884     19883     19896     19899
     19885     19884     19883     19888     19885     19884     19883     19892
     19885     19884     19883     19896     19886     19884     19883     19888
     19886     19884     19883     19892     19886     19884     19883     19896
     19887     19884     19883     19888     19887     19884     19883     19892
     19887     19884     19883     19896     19888     19883     19892     19893
     19888     19883     19892     19894     19888     19883     19892     19895
     19888     19883     19896     19897     19888     19883     19896     19898
     19888     19883     19896     19899     19889     19888     19883     19892
     19889     19888     19883     19896     19890     19888     19883     19892
     19890     19888     19883     19896     19891     19888     19883     19892
     19891     19888     19883     19896     19892     19883     19896     19897
     19892     19883     19896     19898     19892     19883     19896     19899
     19893     19892     19883     19896     19894     19892     19883     19896
     19895     19892     19883     19896     19896     19899     19905     19902
     19897     19896     19899     19900     19897     19896     19899     19901
     19897     19896     19899     19905     19898     19896     19899     19900
     19898     19896     19899     19901     19898     19896     19899     19905
     19899     19905     19902     19903     19899     19905     19902     19904
     19899     19905     19902     19906     19900     19899     19905     19902
     19901     19899     19905     19902     19902     19906     19907     19908
     19902     19906     19907     19909     19902     19906     19907     19910
     19903     19902     19906     19907     19904     19902     19906     19907
     19905     19902     19906     19907     19906     19907     19910     19911
     19906     19907     19910     19912     19906     19907     19910     19918
     19907     19910     19912     19913     19907     19910     19918     19919
     19907     19910     19918     19920     19907     19910     19918     19921
     19908     19907     19910     19911     19908     19907     19910     19912
     19908     19907     19910     19918     19909     19907     19910     19911
     19909     19907     19910     19912     19909     19907     19910     19918
     19910     19912     19913     19914     19910     19912     19913     19915
     19910     19918     19921     19922     19911     19910     19912     19913
     19911     19910     19918     19919     19911     19910     19918     19920
     19911     19910     19918     19921     19912     19910     19918     19919
     19912     19910     19918     19920     19912     19910     19918     19921
     19912     19913     19915     19916     19912     19913     19915     19917
     19912     19913     19915     19927     19913     19912     19910     19918
     19913     19915     19927     19928     19913     19915     19927     19929
     19913     19915     19927     19930     19914     19913     19915     19916
     19914     19913     19915     19917     19914     19913     19915     19927
     19915     19927     19930     19931     19915     19927     19930     19932
     19915     19927     19930     19933     19916     19915     19927     19928
     19916     19915     19927     19929     19916     19915     19927     19930
     19917     19915     19927     19928     19917     19915     19927     19929
     19917     19915     19927     19930     19918     19921     19922     19923
     19918     19921     19922     19924     19919     19918     19921     19922
     19920     19918     19921     19922     19921     19922     19924     19925
     19921     19922     19924     19926     19921     19922     19924     19972
     19922     19924     19972     19973     19922     19924     19972     19974
     19922     19924     19972     19975     19923     19922     19924     19925
     19923     19922     19924     19926     19923     19922     19924     19972
     19924     19972     19975     19976     19924     19972     19975     19977
     19924     19972     19975     19978     19925     19924     19972     19973
     19925     19924     19972     19974     19925     19924     19972     19975
     19926     19924     19972     19973     19926     19924     19972     19974
     19926     19924     19972     19975     19927     19930     19933     19934
     19927     19930     19933     19935     19927     19930     19933     19936
     19928     19927     19930     19931     19928     19927     19930     19932
     19928     19927     19930     19933     19929     19927     19930     19931
     19929     19927     19930     19932     19929     19927     19930     19933
     19930     19933     19936     19937     19930     19933     19936     19938
     19930     19933     19936     19939     19931     19930     19933     19934
     19931     19930     19933     19935     19931     19930     19933     19936
     19932     19930     19933     19934     19932     19930     19933     19935
     19932     19930     19933     19936     19933     19936     19939     19940
     19933     19936     19939     19941     19933     19936     19939     19942
     19934     19933     19936     19937     19934     19933     19936     19938
     19934     19933     19936     19939     19935     19933     19936     19937
     19935     19933     19936     19938     19935     19933     19936     19939
     19936     19939     19942     19943     19936     19939     19942     19944
     19936     19939     19942     19945     19937     19936     19939     19940
     19937     19936     19939     19941     19937     19936     19939     19942
     19938     19936     19939     19940     19938     19936     19939     19941
     19938     19936     19939     19942     19939     19942     19945     19946
     19939     19942     19945     19947     19940     19939     19942     19943
     19940     19939     19942     19944     19940     19939     19942     19945
     19941     19939     19942     19943     19941     19939     19942     19944
     19941     19939     19942     19945     19942     19945     19947     19948
     19942     19945     19947     19949     19943     19942     19945     19946
     19943     19942     19945     19947     19944     19942     19945     19946
     19944     19942     19945     19947     19945     19947     19949     19950
     19945     19947     19949     19951     19945     19947     19949     19952
     19946     19945     19947     19948     19946     19945     19947     19949
     19947     19949     19952     19953     19947     19949     19952     19954
     19948     19947     19949     19950     19948     19947     19949     19951
     19948     19947     19949     19952     19949     19952     19954     19955
     19949     19952     19954     19956     19950     19949     19952     19953
     19950     19949     19952     19954     19951     19949     19952     19953
     19951     19949     19952     19954     19952     19954     19956     19957
     19952     19954     19956     19958     19952     19954     19956     19959
     19953     19952     19954     19955     19953     19952     19954     19956
     19954     19956     19959     19960     19954     19956     19959     19961
     19954     19956     19959     19962     19955     19954     19956     19957
     19955     19954     19956     19958     19955     19954     19956     19959
     19956     19959     19962     19963     19956     19959     19962     19964
     19956     19959     19962     19965     19957     19956     19959     19960
     19957     19956     19959     19961     19957     19956     19959     19962
     19958     19956     19959     19960     19958     19956     19959     19961
     19958     19956     19959     19962     19959     19962     19965     19966
     19959     19962     19965     19967     19959     19962     19965     19968
     19960     19959     19962     19963     19960     19959     19962     19964
     19960     19959     19962     19965     19961     19959     19962     19963
     19961     19959     19962     19964     19961     19959     19962     19965
     19962     19965     19968     19969     19962     19965     19968     19970
     19962     19965     19968     19971     19963     19962     19965     19966
     19963     19962     19965     19967     19963     19962     19965     19968
     19964     19962     19965     19966     19964     19962     19965     19967
     19964     19962     19965     19968     19966     19965     19968     19969
     19966     19965     19968     19970     19966     19965     19968     19971
     19967     19965     19968     19969     19967     19965     19968     19970
     19967     19965     19968     19971     19972     19975     19978     19979
     19972     19975     19978     19980     19972     19975     19978     19981
     19973     19972     19975     19976     19973     19972     19975     19977
     19973     19972     19975     19978     19974     19972     19975     19976
     19974     19972     19975     19977     19974     19972     19975     19978
     19975     19978     19981     19982     19975     19978     19981     19983
     19975     19978     19981     19984     19976     19975     19978     19979
     19976     19975     19978     19980     19976     19975     19978     19981
     19977     19975     19978     19979     19977     19975     19978     19980
     19977     19975     19978     19981     19978     19981     19984     19985
     19978     19981     19984     19986     19978     19981     19984     19987
     19979     19978     19981     19982     19979     19978     19981     19983
     19979     19978     19981     19984     19980     19978     19981     19982
     19980     19978     19981     19983     19980     19978     19981     19984
     19981     19984     19987     19988     19981     19984     19987     19989
     19981     19984     19987     19990     19982     19981     19984     19985
     19982     19981     19984     19986     19982     19981     19984     19987
     19983     19981     19984     19985     19983     19981     19984     19986
     19983     19981     19984     19987     19984     19987     19990     19991
     19984     19987     19990     19992     19984     19987     19990     19993
     19985     19984     19987     19988     19985     19984     19987     19989
     19985     19984     19987     19990     19986     19984     19987     19988
     19986     19984     19987     19989     19986     19984     19987     19990
     19987     19990     19993     19994     19987     19990     19993     19995
     19987     19990     19993     19996     19988     19987     19990     19991
     19988     19987     19990     19992     19988     19987     19990     19993
     19989     19987     19990     19991     19989     19987     19990     19992
     19989     19987     19990     19993     19990     19993     19996     19997
     19990     19993     19996     19998     19990     19993     19996     19999
     19991     19990     19993     19994     19991     19990     19993     19995
     19991     19990     19993     19996     19992     19990     19993     19994
     19992     19990     19993     19995     19992     19990     19993     19996
     19993     19996     19999     20000     19993     19996     19999     20001
     19993     19996     19999     20002     19994     19993     19996     19997
     19994     19993     19996     19998     19994     19993     19996     19999
     19995     19993     19996     19997     19995     19993     19996     19998
     19995     19993     19996     19999     19996     19999     20002     20003
     19996     19999     20002     20004     19996     19999     20002     20005
     19997     19996     19999     20000     19997     19996     19999     20001
     19997     19996     19999     20002     19998     19996     19999     20000
     19998     19996     19999     20001     19998     19996     19999     20002
     19999     20002     20005     20006     19999     20002     20005     20007
     19999     20002     20005     20008     20000     19999     20002     20003
     20000     19999     20002     20004     20000     19999     20002     20005
     20001     19999     20002     20003     20001     19999     20002     20004
     20001     19999     20002     20005     20002     20005     20008     20009
     20002     20005     20008     20010     20002     20005     20008     20011
     20003     20002     20005     20006     20003     20002     20005     20007
     20003     20002     20005     20008     20004     20002     20005     20006
     20004     20002     20005     20007     20004     20002     20005     20008
     20005     20008     20011     20012     20005     20008     20011     20013
     20005     20008     20011     20014     20006     20005     20008     20009
     20006     20005     20008     20010     20006     20005     20008     20011
     20007     20005     20008     20009     20007     20005     20008     20010
     20007     20005     20008     20011     20008     20011     20014     20015
     20008     20011     20014     20016     20008     20011     20014     20017
     20009     20008     20011     20012     20009     20008     20011     20013
     20009     20008     20011     20014     20010     20008     20011     20012
     20010     20008     20011     20013     20010     20008     20011     20014
     20011     20014     20017     20018     20011     20014     20017     20019
     20011     20014     20017     20020     20012     20011     20014     20015
     20012     20011     20014     20016     20012     20011     20014     20017
     20013     20011     20014     20015     20013     20011     20014     20016
     20013     20011     20014     20017     20015     20014     20017     20018
     20015     20014     20017     20019     20015     20014     20017     20020
     20016     20014     20017     20018     20016     20014     20017     20019
     20016     20014     20017     20020     20021     20025     20028     20029
     20021     20025     20028     20059     20021     20067     20064     20059
     20021     20067     20064     20065     20021     20067     20064     20066
     20022     20021     20023     20024     20022     20021     20025     20026
     20022     20021     20025     20027     20022     20021     20025     20028
     20022     20021     20067     20064     20022     20021     20067     20068
     20022     20021     20067     20069     20023     20021     20025     20026
     20023     20021     20025     20027     20023     20021     20025     20028
     20023     20021     20067     20064     20023     20021     20067     20068
     20023     20021     20067     20069     20024     20023     20021     20025
     20024     20023     20021     20067     20025     20021     20067     20064
     20025     20021     20067     20068     20025     20021     20067     20069
     20025     20028     20029     20030     20025     20028     20029     20031
     20025     20028     20059     20057     20025     20028     20059     20060
     20025     20028     20059     20064     20026     20025     20021     20067
     20026     20025     20028     20029     20026     20025     20028     20059
     20027     20025     20021     20067     20027     20025     20028     20029
     20027     20025     20028     20059     20028     20025     20021     20067
     20028     20029     20031     20032     20028     20029     20031     20033
     20028     20029     20031     20034     20028     20059     20057     20034
     20028     20059     20057     20054     20028     20059     20057     20058
     20028     20059     20060     20061     20028     20059     20060     20062
     20028     20059     20060     20063     20028     20059     20064     20065
     20028     20059     20064     20066     20028     20059     20064     20067
     20029     20028     20059     20057     20029     20028     20059     20060
     20029     20028     20059     20064     20029     20031     20034     20035
     20029     20031     20034     20036     20029     20031     20034     20057
     20030     20029     20028     20059     20030     20029     20031     20032
     20030     20029     20031     20033     20030     20029     20031     20034
     20031     20029     20028     20059     20031     20034     20036     20037
     20031     20034     20036     20038     20031     20034     20036     20046
     20031     20034     20057     20054     20031     20034     20057     20058
     20031     20034     20057     20059     20032     20031     20034     20035
     20032     20031     20034     20036     20032     20031     20034     20057
     20033     20031     20034     20035     20033     20031     20034     20036
     20033     20031     20034     20057     20034     20036     20038     20039
     20034     20036     20038     20040     20034     20036     20038     20041
     20034     20036     20046     20044     20034     20036     20046     20047
     20034     20036     20046     20051     20034     20057     20054     20051
     20034     20057     20054     20055     20034     20057     20054     20056
     20034     20057     20059     20060     20034     20057     20059     20064
     20035     20034     20036     20037     20035     20034     20036     20038
     20035     20034     20036     20046     20035     20034     20057     20054
     20035     20034     20057     20058     20035     20034     20057     20059
     20036     20034     20057     20054     20036     20034     20057     20058
     20036     20034     20057     20059     20036     20038     20041     20042
     20036     20038     20041     20043     20036     20038     20041     20044
     20036     20046     20044     20041     20036     20046     20044     20045
     20036     20046     20044     20070     20036     20046     20047     20048
     20036     20046     20047     20049     20036     20046     20047     20050
     20036     20046     20051     20052     20036     20046     20051     20053
     20036     20046     20051     20054     20037     20036     20034     20057
     20037     20036     20038     20039     20037     20036     20038     20040
     20037     20036     20038     20041     20037     20036     20046     20044
     20037     20036     20046     20047     20037     20036     20046     20051
     20038     20036     20034     20057     20038     20036     20046     20044
     20038     20036     20046     20047     20038     20036     20046     20051
     20038     20041     20044     20045     20038     20041     20044     20046
     20038     20041     20044     20070     20039     20038     20036     20046
     20039     20038     20041     20042     20039     20038     20041     20043
     20039     20038     20041     20044     20040     20038     20036     20046
     20040     20038     20041     20042     20040     20038     20041     20043
     20040     20038     20041     20044     20041     20038     20036     20046
     20041     20044     20046     20047     20041     20044     20046     20051
     20041     20044     20070     20071     20041     20044     20070     20072
     20041     20044     20070     20076     20042     20041     20044     20045
     20042     20041     20044     20046     20042     20041     20044     20070
     20043     20041     20044     20045     20043     20041     20044     20046
     20043     20041     20044     20070     20044     20046     20047     20048
     20044     20046     20047     20049     20044     20046     20047     20050
     20044     20046     20051     20052     20044     20046     20051     20053
     20044     20046     20051     20054     20044     20070     20072     20073
     20044     20070     20072     20074     20044     20070     20072     20075
     20044     20070     20076     20077     20044     20070     20076     20078
     20044     20070     20076     20079     20045     20044     20046     20047
     20045     20044     20046     20051     20045     20044     20070     20071
     20045     20044     20070     20072     20045     20044     20070     20076
     20046     20036     20034     20057     20046     20044     20070     20071
     20046     20044     20070     20072     20046     20044     20070     20076
     20046     20051     20054     20055     20046     20051     20054     20056
     20046     20051     20054     20057     20047     20046     20044     20070
     20047     20046     20051     20052     20047     20046     20051     20053
     20047     20046     20051     20054     20048     20047     20046     20051
     20049     20047     20046     20051     20050     20047     20046     20051
     20051     20046     20044     20070     20051     20054     20057     20058
     20051     20054     20057     20059     20052     20051     20054     20055
     20052     20051     20054     20056     20052     20051     20054     20057
     20053     20051     20054     20055     20053     20051     20054     20056
     20053     20051     20054     20057     20054     20057     20059     20060
     20054     20057     20059     20064     20055     20054     20057     20058
     20055     20054     20057     20059     20056     20054     20057     20058
     20056     20054     20057     20059     20057     20059     20060     20061
     20057     20059     20060     20062     20057     20059     20060     20063
     20057     20059     20064     20065     20057     20059     20064     20066
     20057     20059     20064     20067     20058     20057     20059     20060
     20058     20057     20059     20064     20059     20064     20067     20068
     20059     20064     20067     20069     20060     20059     20064     20065
     20060     20059     20064     20066     20060     20059     20064     20067
     20061     20060     20059     20064     20062     20060     20059     20064
     20063     20060     20059     20064     20065     20064     20067     20068
     20065     20064     20067     20069     20066     20064     20067     20068
     20066     20064     20067     20069     20070     20076     20079     20080
     20070     20076     20079     20081     20070     20076     20079     20082
     20071     20070     20072     20073     20071     20070     20072     20074
     20071     20070     20072     20075     20071     20070     20076     20077
     20071     20070     20076     20078     20071     20070     20076     20079
     20072     20070     20076     20077     20072     20070     20076     20078
     20072     20070     20076     20079     20073     20072     20070     20076
     20074     20072     20070     20076     20075     20072     20070     20076
     20076     20079     20082     20083     20076     20079     20082     20084
     20076     20079     20082     20085     20077     20076     20079     20080
     20077     20076     20079     20081     20077     20076     20079     20082
     20078     20076     20079     20080     20078     20076     20079     20081
     20078     20076     20079     20082     20079     20082     20085     20086
     20079     20082     20085     20087     20079     20082     20085     20091
     20080     20079     20082     20083     20080     20079     20082     20084
     20080     20079     20082     20085     20081     20079     20082     20083
     20081     20079     20082     20084     20081     20079     20082     20085
     20082     20085     20087     20088     20082     20085     20087     20089
     20082     20085     20087     20090     20082     20085     20091     20092
     20082     20085     20091     20093     20082     20085     20091     20094
     20083     20082     20085     20086     20083     20082     20085     20087
     20083     20082     20085     20091     20084     20082     20085     20086
     20084     20082     20085     20087     20084     20082     20085     20091
     20086     20085     20087     20088     20086     20085     20087     20089
     20086     20085     20087     20090     20086     20085     20091     20092
     20086     20085     20091     20093     20086     20085     20091     20094
     20087     20085     20091     20092     20087     20085     20091     20093
     20087     20085     20091     20094     20088     20087     20085     20091
     20089     20087     20085     20091     20090     20087     20085     20091
     20095     20099     20102     20103     20095     20099     20102     20133
     20095     20141     20138     20133     20095     20141     20138     20139
     20095     20141     20138     20140     20096     20095     20097     20098
     20096     20095     20099     20100     20096     20095     20099     20101
     20096     20095     20099     20102     20096     20095     20141     20138
     20096     20095     20141     20142     20096     20095     20141     20143
     20097     20095     20099     20100     20097     20095     20099     20101
     20097     20095     20099     20102     20097     20095     20141     20138
     20097     20095     20141     20142     20097     20095     20141     20143
     20098     20097     20095     20099     20098     20097     20095     20141
     20099     20095     20141     20138     20099     20095     20141     20142
     20099     20095     20141     20143     20099     20102     20103     20104
     20099     20102     20103     20105     20099     20102     20133     20131
     20099     20102     20133     20134     20099     20102     20133     20138
     20100     20099     20095     20141     20100     20099     20102     20103
     20100     20099     20102     20133     20101     20099     20095     20141
     20101     20099     20102     20103     20101     20099     20102     20133
     20102     20099     20095     20141     20102     20103     20105     20106
     20102     20103     20105     20107     20102     20103     20105     20108
     20102     20133     20131     20108     20102     20133     20131     20128
     20102     20133     20131     20132     20102     20133     20134     20135
     20102     20133     20134     20136     20102     20133     20134     20137
     20102     20133     20138     20139     20102     20133     20138     20140
     20102     20133     20138     20141     20103     20102     20133     20131
     20103     20102     20133     20134     20103     20102     20133     20138
     20103     20105     20108     20109     20103     20105     20108     20110
     20103     20105     20108     20131     20104     20103     20102     20133
     20104     20103     20105     20106     20104     20103     20105     20107
     20104     20103     20105     20108     20105     20103     20102     20133
     20105     20108     20110     20111     20105     20108     20110     20112
     20105     20108     20110     20120     20105     20108     20131     20128
     20105     20108     20131     20132     20105     20108     20131     20133
     20106     20105     20108     20109     20106     20105     20108     20110
     20106     20105     20108     20131     20107     20105     20108     20109
     20107     20105     20108     20110     20107     20105     20108     20131
     20108     20110     20112     20113     20108     20110     20112     20114
     20108     20110     20112     20115     20108     20110     20120     20118
     20108     20110     20120     20121     20108     20110     20120     20125
     20108     20131     20128     20125     20108     20131     20128     20129
     20108     20131     20128     20130     20108     20131     20133     20134
     20108     20131     20133     20138     20109     20108     20110     20111
     20109     20108     20110     20112     20109     20108     20110     20120
     20109     20108     20131     20128     20109     20108     20131     20132
     20109     20108     20131     20133     20110     20108     20131     20128
     20110     20108     20131     20132     20110     20108     20131     20133
     20110     20112     20115     20116     20110     20112     20115     20117
     20110     20112     20115     20118     20110     20120     20118     20115
     20110     20120     20118     20119     20110     20120     20118     20144
     20110     20120     20121     20122     20110     20120     20121     20123
     20110     20120     20121     20124     20110     20120     20125     20126
     20110     20120     20125     20127     20110     20120     20125     20128
     20111     20110     20108     20131     20111     20110     20112     20113
     20111     20110     20112     20114     20111     20110     20112     20115
     20111     20110     20120     20118     20111     20110     20120     20121
     20111     20110     20120     20125     20112     20110     20108     20131
     20112     20110     20120     20118     20112     20110     20120     20121
     20112     20110     20120     20125     20112     20115     20118     20119
     20112     20115     20118     20120     20112     20115     20118     20144
     20113     20112     20110     20120     20113     20112     20115     20116
     20113     20112     20115     20117     20113     20112     20115     20118
     20114     20112     20110     20120     20114     20112     20115     20116
     20114     20112     20115     20117     20114     20112     20115     20118
     20115     20112     20110     20120     20115     20118     20120     20121
     20115     20118     20120     20125     20115     20118     20144     20145
     20115     20118     20144     20146     20115     20118     20144     20150
     20116     20115     20118     20119     20116     20115     20118     20120
     20116     20115     20118     20144     20117     20115     20118     20119
     20117     20115     20118     20120     20117     20115     20118     20144
     20118     20120     20121     20122     20118     20120     20121     20123
     20118     20120     20121     20124     20118     20120     20125     20126
     20118     20120     20125     20127     20118     20120     20125     20128
     20118     20144     20146     20147     20118     20144     20146     20148
     20118     20144     20146     20149     20118     20144     20150     20151
     20118     20144     20150     20152     20118     20144     20150     20153
     20119     20118     20120     20121     20119     20118     20120     20125
     20119     20118     20144     20145     20119     20118     20144     20146
     20119     20118     20144     20150     20120     20110     20108     20131
     20120     20118     20144     20145     20120     20118     20144     20146
     20120     20118     20144     20150     20120     20125     20128     20129
     20120     20125     20128     20130     20120     20125     20128     20131
     20121     20120     20118     20144     20121     20120     20125     20126
     20121     20120     20125     20127     20121     20120     20125     20128
     20122     20121     20120     20125     20123     20121     20120     20125
     20124     20121     20120     20125     20125     20120     20118     20144
     20125     20128     20131     20132     20125     20128     20131     20133
     20126     20125     20128     20129     20126     20125     20128     20130
     20126     20125     20128     20131     20127     20125     20128     20129
     20127     20125     20128     20130     20127     20125     20128     20131
     20128     20131     20133     20134     20128     20131     20133     20138
     20129     20128     20131     20132     20129     20128     20131     20133
     20130     20128     20131     20132     20130     20128     20131     20133
     20131     20133     20134     20135     20131     20133     20134     20136
     20131     20133     20134     20137     20131     20133     20138     20139
     20131     20133     20138     20140     20131     20133     20138     20141
     20132     20131     20133     20134     20132     20131     20133     20138
     20133     20138     20141     20142     20133     20138     20141     20143
     20134     20133     20138     20139     20134     20133     20138     20140
     20134     20133     20138     20141     20135     20134     20133     20138
     20136     20134     20133     20138     20137     20134     20133     20138
     20139     20138     20141     20142     20139     20138     20141     20143
     20140     20138     20141     20142     20140     20138     20141     20143
     20144     20150     20153     20154     20144     20150     20153     20155
     20144     20150     20153     20156     20145     20144     20146     20147
     20145     20144     20146     20148     20145     20144     20146     20149
     20145     20144     20150     20151     20145     20144     20150     20152
     20145     20144     20150     20153     20146     20144     20150     20151
     20146     20144     20150     20152     20146     20144     20150     20153
     20147     20146     20144     20150     20148     20146     20144     20150
     20149     20146     20144     20150     20150     20153     20156     20157
     20150     20153     20156     20158     20150     20153     20156     20159
     20151     20150     20153     20154     20151     20150     20153     20155
     20151     20150     20153     20156     20152     20150     20153     20154
     20152     20150     20153     20155     20152     20150     20153     20156
     20153     20156     20159     20160     20153     20156     20159     20161
     20153     20156     20159     20165     20154     20153     20156     20157
     20154     20153     20156     20158     20154     20153     20156     20159
     20155     20153     20156     20157     20155     20153     20156     20158
     20155     20153     20156     20159     20156     20159     20161     20162
     20156     20159     20161     20163     20156     20159     20161     20164
     20156     20159     20165     20166     20156     20159     20165     20167
     20156     20159     20165     20168     20157     20156     20159     20160
     20157     20156     20159     20161     20157     20156     20159     20165
     20158     20156     20159     20160     20158     20156     20159     20161
     20158     20156     20159     20165     20160     20159     20161     20162
     20160     20159     20161     20163     20160     20159     20161     20164
     20160     20159     20165     20166     20160     20159     20165     20167
     20160     20159     20165     20168     20161     20159     20165     20166
     20161     20159     20165     20167     20161     20159     20165     20168
     20162     20161     20159     20165     20163     20161     20159     20165
     20164     20161     20159     20165     20169     20173     20176     20177
     20169     20173     20176     20178     20169     20173     20176     20182
     20170     20169     20173     20174     20170     20169     20173     20175
     20170     20169     20173     20176     20171     20169     20173     20174
     20171     20169     20173     20175     20171     20169     20173     20176
     20172     20169     20173     20174     20172     20169     20173     20175
     20172     20169     20173     20176     20173     20176     20182     20179
     20174     20173     20176     20177     20174     20173     20176     20178
     20174     20173     20176     20182     20175     20173     20176     20177
     20175     20173     20176     20178     20175     20173     20176     20182
     20176     20182     20179     20180     20176     20182     20179     20181
     20176     20182     20179     20183     20177     20176     20182     20179
     20178     20176     20182     20179     20179     20183     20184     20185
     20179     20183     20184     20186     20179     20183     20184     20187
     20180     20179     20183     20184     20181     20179     20183     20184
     20182     20179     20183     20184     20183     20184     20187     20188
     20183     20184     20187     20189     20183     20184     20187     20195
     20184     20187     20189     20190     20184     20187     20195     20196
     20184     20187     20195     20197     20184     20187     20195     20198
     20185     20184     20187     20188     20185     20184     20187     20189
     20185     20184     20187     20195     20186     20184     20187     20188
     20186     20184     20187     20189     20186     20184     20187     20195
     20187     20189     20190     20191     20187     20189     20190     20192
     20187     20195     20198     20199     20188     20187     20189     20190
     20188     20187     20195     20196     20188     20187     20195     20197
     20188     20187     20195     20198     20189     20187     20195     20196
     20189     20187     20195     20197     20189     20187     20195     20198
     20189     20190     20192     20193     20189     20190     20192     20194
     20189     20190     20192     20204     20190     20189     20187     20195
     20190     20192     20204     20205     20190     20192     20204     20206
     20190     20192     20204     20207     20191     20190     20192     20193
     20191     20190     20192     20194     20191     20190     20192     20204
     20192     20204     20207     20208     20192     20204     20207     20209
     20192     20204     20207     20210     20193     20192     20204     20205
     20193     20192     20204     20206     20193     20192     20204     20207
     20194     20192     20204     20205     20194     20192     20204     20206
     20194     20192     20204     20207     20195     20198     20199     20200
     20195     20198     20199     20201     20196     20195     20198     20199
     20197     20195     20198     20199     20198     20199     20201     20202
     20198     20199     20201     20203     20198     20199     20201     20251
     20199     20201     20251     20252     20199     20201     20251     20253
     20199     20201     20251     20254     20200     20199     20201     20202
     20200     20199     20201     20203     20200     20199     20201     20251
     20201     20251     20254     20255     20201     20251     20254     20256
     20201     20251     20254     20257     20202     20201     20251     20252
     20202     20201     20251     20253     20202     20201     20251     20254
     20203     20201     20251     20252     20203     20201     20251     20253
     20203     20201     20251     20254     20204     20207     20210     20211
     20204     20207     20210     20212     20205     20204     20207     20208
     20205     20204     20207     20209     20205     20204     20207     20210
     20206     20204     20207     20208     20206     20204     20207     20209
     20206     20204     20207     20210     20207     20210     20212     20213
     20207     20210     20212     20214     20208     20207     20210     20211
     20208     20207     20210     20212     20209     20207     20210     20211
     20209     20207     20210     20212     20210     20212     20214     20215
     20210     20212     20214     20216     20210     20212     20214     20217
     20211     20210     20212     20213     20211     20210     20212     20214
     20212     20214     20217     20218     20212     20214     20217     20219
     20213     20212     20214     20215     20213     20212     20214     20216
     20213     20212     20214     20217     20214     20217     20219     20220
     20214     20217     20219     20221     20215     20214     20217     20218
     20215     20214     20217     20219     20216     20214     20217     20218
     20216     20214     20217     20219     20217     20219     20221     20222
     20217     20219     20221     20223     20217     20219     20221     20224
     20218     20217     20219     20220     20218     20217     20219     20221
     20219     20221     20224     20225     20219     20221     20224     20226
     20220     20219     20221     20222     20220     20219     20221     20223
     20220     20219     20221     20224     20221     20224     20226     20227
     20221     20224     20226     20228     20222     20221     20224     20225
     20222     20221     20224     20226     20223     20221     20224     20225
     20223     20221     20224     20226     20224     20226     20228     20229
     20224     20226     20228     20230     20224     20226     20228     20231
     20225     20224     20226     20227     20225     20224     20226     20228
     20226     20228     20231     20232     20226     20228     20231     20233
     20227     20226     20228     20229     20227     20226     20228     20230
     20227     20226     20228     20231     20228     20231     20233     20234
     20228     20231     20233     20235     20229     20228     20231     20232
     20229     20228     20231     20233     20230     20228     20231     20232
     20230     20228     20231     20233     20231     20233     20235     20236
     20231     20233     20235     20237     20231     20233     20235     20238
     20232     20231     20233     20234     20232     20231     20233     20235
     20233     20235     20238     20239     20233     20235     20238     20240
     20233     20235     20238     20241     20234     20233     20235     20236
     20234     20233     20235     20237     20234     20233     20235     20238
     20235     20238     20241     20242     20235     20238     20241     20243
     20235     20238     20241     20244     20236     20235     20238     20239
     20236     20235     20238     20240     20236     20235     20238     20241
     20237     20235     20238     20239     20237     20235     20238     20240
     20237     20235     20238     20241     20238     20241     20244     20245
     20238     20241     20244     20246     20238     20241     20244     20247
     20239     20238     20241     20242     20239     20238     20241     20243
     20239     20238     20241     20244     20240     20238     20241     20242
     20240     20238     20241     20243     20240     20238     20241     20244
     20241     20244     20247     20248     20241     20244     20247     20249
     20241     20244     20247     20250     20242     20241     20244     20245
     20242     20241     20244     20246     20242     20241     20244     20247
     20243     20241     20244     20245     20243     20241     20244     20246
     20243     20241     20244     20247     20245     20244     20247     20248
     20245     20244     20247     20249     20245     20244     20247     20250
     20246     20244     20247     20248     20246     20244     20247     20249
     20246     20244     20247     20250     20251     20254     20257     20258
     20251     20254     20257     20259     20251     20254     20257     20260
     20252     20251     20254     20255     20252     20251     20254     20256
     20252     20251     20254     20257     20253     20251     20254     20255
     20253     20251     20254     20256     20253     20251     20254     20257
     20254     20257     20260     20261     20254     20257     20260     20262
     20254     20257     20260     20263     20255     20254     20257     20258
     20255     20254     20257     20259     20255     20254     20257     20260
     20256     20254     20257     20258     20256     20254     20257     20259
     20256     20254     20257     20260     20257     20260     20263     20264
     20257     20260     20263     20265     20257     20260     20263     20266
     20258     20257     20260     20261     20258     20257     20260     20262
     20258     20257     20260     20263     20259     20257     20260     20261
     20259     20257     20260     20262     20259     20257     20260     20263
     20260     20263     20266     20267     20260     20263     20266     20268
     20260     20263     20266     20269     20261     20260     20263     20264
     20261     20260     20263     20265     20261     20260     20263     20266
     20262     20260     20263     20264     20262     20260     20263     20265
     20262     20260     20263     20266     20263     20266     20269     20270
     20263     20266     20269     20271     20263     20266     20269     20272
     20264     20263     20266     20267     20264     20263     20266     20268
     20264     20263     20266     20269     20265     20263     20266     20267
     20265     20263     20266     20268     20265     20263     20266     20269
     20266     20269     20272     20273     20266     20269     20272     20274
     20266     20269     20272     20275     20267     20266     20269     20270
     20267     20266     20269     20271     20267     20266     20269     20272
     20268     20266     20269     20270     20268     20266     20269     20271
     20268     20266     20269     20272     20269     20272     20275     20276
     20269     20272     20275     20277     20269     20272     20275     20278
     20270     20269     20272     20273     20270     20269     20272     20274
     20270     20269     20272     20275     20271     20269     20272     20273
     20271     20269     20272     20274     20271     20269     20272     20275
     20272     20275     20278     20279     20272     20275     20278     20280
     20272     20275     20278     20281     20273     20272     20275     20276
     20273     20272     20275     20277     20273     20272     20275     20278
     20274     20272     20275     20276     20274     20272     20275     20277
     20274     20272     20275     20278     20275     20278     20281     20282
     20275     20278     20281     20283     20275     20278     20281     20284
     20276     20275     20278     20279     20276     20275     20278     20280
     20276     20275     20278     20281     20277     20275     20278     20279
     20277     20275     20278     20280     20277     20275     20278     20281
     20278     20281     20284     20285     20278     20281     20284     20286
     20278     20281     20284     20287     20279     20278     20281     20282
     20279     20278     20281     20283     20279     20278     20281     20284
     20280     20278     20281     20282     20280     20278     20281     20283
     20280     20278     20281     20284     20281     20284     20287     20288
     20281     20284     20287     20289     20281     20284     20287     20290
     20282     20281     20284     20285     20282     20281     20284     20286
     20282     20281     20284     20287     20283     20281     20284     20285
     20283     20281     20284     20286     20283     20281     20284     20287
     20284     20287     20290     20291     20284     20287     20290     20292
     20284     20287     20290     20293     20285     20284     20287     20288
     20285     20284     20287     20289     20285     20284     20287     20290
     20286     20284     20287     20288     20286     20284     20287     20289
     20286     20284     20287     20290     20287     20290     20293     20294
     20287     20290     20293     20295     20287     20290     20293     20296
     20288     20287     20290     20291     20288     20287     20290     20292
     20288     20287     20290     20293     20289     20287     20290     20291
     20289     20287     20290     20292     20289     20287     20290     20293
     20290     20293     20296     20297     20290     20293     20296     20298
     20290     20293     20296     20299     20291     20290     20293     20294
     20291     20290     20293     20295     20291     20290     20293     20296
     20292     20290     20293     20294     20292     20290     20293     20295
     20292     20290     20293     20296     20294     20293     20296     20297
     20294     20293     20296     20298     20294     20293     20296     20299
     20295     20293     20296     20297     20295     20293     20296     20298
     20295     20293     20296     20299     20300     20304     20307     20308
     20300     20304     20307     20338     20300     20346     20343     20338
     20300     20346     20343     20344     20300     20346     20343     20345
     20301     20300     20302     20303     20301     20300     20304     20305
     20301     20300     20304     20306     20301     20300     20304     20307
     20301     20300     20346     20343     20301     20300     20346     20347
     20301     20300     20346     20348     20302     20300     20304     20305
     20302     20300     20304     20306     20302     20300     20304     20307
     20302     20300     20346     20343     20302     20300     20346     20347
     20302     20300     20346     20348     20303     20302     20300     20304
     20303     20302     20300     20346     20304     20300     20346     20343
     20304     20300     20346     20347     20304     20300     20346     20348
     20304     20307     20308     20309     20304     20307     20308     20310
     20304     20307     20338     20336     20304     20307     20338     20339
     20304     20307     20338     20343     20305     20304     20300     20346
     20305     20304     20307     20308     20305     20304     20307     20338
     20306     20304     20300     20346     20306     20304     20307     20308
     20306     20304     20307     20338     20307     20304     20300     20346
     20307     20308     20310     20311     20307     20308     20310     20312
     20307     20308     20310     20313     20307     20338     20336     20313
     20307     20338     20336     20333     20307     20338     20336     20337
     20307     20338     20339     20340     20307     20338     20339     20341
     20307     20338     20339     20342     20307     20338     20343     20344
     20307     20338     20343     20345     20307     20338     20343     20346
     20308     20307     20338     20336     20308     20307     20338     20339
     20308     20307     20338     20343     20308     20310     20313     20314
     20308     20310     20313     20315     20308     20310     20313     20336
     20309     20308     20307     20338     20309     20308     20310     20311
     20309     20308     20310     20312     20309     20308     20310     20313
     20310     20308     20307     20338     20310     20313     20315     20316
     20310     20313     20315     20317     20310     20313     20315     20325
     20310     20313     20336     20333     20310     20313     20336     20337
     20310     20313     20336     20338     20311     20310     20313     20314
     20311     20310     20313     20315     20311     20310     20313     20336
     20312     20310     20313     20314     20312     20310     20313     20315
     20312     20310     20313     20336     20313     20315     20317     20318
     20313     20315     20317     20319     20313     20315     20317     20320
     20313     20315     20325     20323     20313     20315     20325     20326
     20313     20315     20325     20330     20313     20336     20333     20330
     20313     20336     20333     20334     20313     20336     20333     20335
     20313     20336     20338     20339     20313     20336     20338     20343
     20314     20313     20315     20316     20314     20313     20315     20317
     20314     20313     20315     20325     20314     20313     20336     20333
     20314     20313     20336     20337     20314     20313     20336     20338
     20315     20313     20336     20333     20315     20313     20336     20337
     20315     20313     20336     20338     20315     20317     20320     20321
     20315     20317     20320     20322     20315     20317     20320     20323
     20315     20325     20323     20320     20315     20325     20323     20324
     20315     20325     20323     20349     20315     20325     20326     20327
     20315     20325     20326     20328     20315     20325     20326     20329
     20315     20325     20330     20331     20315     20325     20330     20332
     20315     20325     20330     20333     20316     20315     20313     20336
     20316     20315     20317     20318     20316     20315     20317     20319
     20316     20315     20317     20320     20316     20315     20325     20323
     20316     20315     20325     20326     20316     20315     20325     20330
     20317     20315     20313     20336     20317     20315     20325     20323
     20317     20315     20325     20326     20317     20315     20325     20330
     20317     20320     20323     20324     20317     20320     20323     20325
     20317     20320     20323     20349     20318     20317     20315     20325
     20318     20317     20320     20321     20318     20317     20320     20322
     20318     20317     20320     20323     20319     20317     20315     20325
     20319     20317     20320     20321     20319     20317     20320     20322
     20319     20317     20320     20323     20320     20317     20315     20325
     20320     20323     20325     20326     20320     20323     20325     20330
     20320     20323     20349     20350     20320     20323     20349     20351
     20320     20323     20349     20355     20321     20320     20323     20324
     20321     20320     20323     20325     20321     20320     20323     20349
     20322     20320     20323     20324     20322     20320     20323     20325
     20322     20320     20323     20349     20323     20325     20326     20327
     20323     20325     20326     20328     20323     20325     20326     20329
     20323     20325     20330     20331     20323     20325     20330     20332
     20323     20325     20330     20333     20323     20349     20351     20352
     20323     20349     20351     20353     20323     20349     20351     20354
     20323     20349     20355     20356     20323     20349     20355     20357
     20323     20349     20355     20358     20324     20323     20325     20326
     20324     20323     20325     20330     20324     20323     20349     20350
     20324     20323     20349     20351     20324     20323     20349     20355
     20325     20315     20313     20336     20325     20323     20349     20350
     20325     20323     20349     20351     20325     20323     20349     20355
     20325     20330     20333     20334     20325     20330     20333     20335
     20325     20330     20333     20336     20326     20325     20323     20349
     20326     20325     20330     20331     20326     20325     20330     20332
     20326     20325     20330     20333     20327     20326     20325     20330
     20328     20326     20325     20330     20329     20326     20325     20330
     20330     20325     20323     20349     20330     20333     20336     20337
     20330     20333     20336     20338     20331     20330     20333     20334
     20331     20330     20333     20335     20331     20330     20333     20336
     20332     20330     20333     20334     20332     20330     20333     20335
     20332     20330     20333     20336     20333     20336     20338     20339
     20333     20336     20338     20343     20334     20333     20336     20337
     20334     20333     20336     20338     20335     20333     20336     20337
     20335     20333     20336     20338     20336     20338     20339     20340
     20336     20338     20339     20341     20336     20338     20339     20342
     20336     20338     20343     20344     20336     20338     20343     20345
     20336     20338     20343     20346     20337     20336     20338     20339
     20337     20336     20338     20343     20338     20343     20346     20347
     20338     20343     20346     20348     20339     20338     20343     20344
     20339     20338     20343     20345     20339     20338     20343     20346
     20340     20339     20338     20343     20341     20339     20338     20343
     20342     20339     20338     20343     20344     20343     20346     20347
     20344     20343     20346     20348     20345     20343     20346     20347
     20345     20343     20346     20348     20349     20355     20358     20359
     20349     20355     20358     20360     20349     20355     20358     20361
     20350     20349     20351     20352     20350     20349     20351     20353
     20350     20349     20351     20354     20350     20349     20355     20356
     20350     20349     20355     20357     20350     20349     20355     20358
     20351     20349     20355     20356     20351     20349     20355     20357
     20351     20349     20355     20358     20352     20351     20349     20355
     20353     20351     20349     20355     20354     20351     20349     20355
     20355     20358     20361     20362     20355     20358     20361     20363
     20355     20358     20361     20364     20356     20355     20358     20359
     20356     20355     20358     20360     20356     20355     20358     20361
     20357     20355     20358     20359     20357     20355     20358     20360
     20357     20355     20358     20361     20358     20361     20364     20365
     20358     20361     20364     20366     20358     20361     20364     20370
     20359     20358     20361     20362     20359     20358     20361     20363
     20359     20358     20361     20364     20360     20358     20361     20362
     20360     20358     20361     20363     20360     20358     20361     20364
     20361     20364     20366     20367     20361     20364     20366     20368
     20361     20364     20366     20369     20361     20364     20370     20371
     20361     20364     20370     20372     20361     20364     20370     20373
     20362     20361     20364     20365     20362     20361     20364     20366
     20362     20361     20364     20370     20363     20361     20364     20365
     20363     20361     20364     20366     20363     20361     20364     20370
     20365     20364     20366     20367     20365     20364     20366     20368
     20365     20364     20366     20369     20365     20364     20370     20371
     20365     20364     20370     20372     20365     20364     20370     20373
     20366     20364     20370     20371     20366     20364     20370     20372
     20366     20364     20370     20373     20367     20366     20364     20370
     20368     20366     20364     20370     20369     20366     20364     20370
     20374     20387     20390     20391     20374     20387     20390     20392
     20374     20387     20390     20397     20375     20374     20379     20380
     20375     20374     20379     20381     20375     20374     20379     20382
     20375     20374     20383     20384     20375     20374     20383     20385
     20375     20374     20383     20386     20375     20374     20387     20388
     20375     20374     20387     20389     20375     20374     20387     20390
     20376     20375     20374     20379     20376     20375     20374     20383
     20376     20375     20374     20387     20377     20375     20374     20379
     20377     20375     20374     20383     20377     20375     20374     20387
     20378     20375     20374     20379     20378     20375     20374     20383
     20378     20375     20374     20387     20379     20374     20383     20384
     20379     20374     20383     20385     20379     20374     20383     20386
     20379     20374     20387     20388     20379     20374     20387     20389
     20379     20374     20387     20390     20380     20379     20374     20383
     20380     20379     20374     20387     20381     20379     20374     20383
     20381     20379     20374     20387     20382     20379     20374     20383
     20382     20379     20374     20387     20383     20374     20387     20388
     20383     20374     20387     20389     20383     20374     20387     20390
     20384     20383     20374     20387     20385     20383     20374     20387
     20386     20383     20374     20387     20387     20390     20397     20393
     20388     20387     20390     20391     20388     20387     20390     20392
     20388     20387     20390     20397     20389     20387     20390     20391
     20389     20387     20390     20392     20389     20387     20390     20397
     20390     20397     20393     20394     20390     20397     20393     20395
     20390     20397     20393     20396     20391     20390     20397     20393
     20392     20390     20397     20393     20393     20396     20398     20399
     20393     20396     20398     20400     20393     20396     20398     20403
     20394     20393     20396     20398     20395     20393     20396     20398
     20396     20398     20403     20401     20396     20398     20403     20404
     20396     20398     20403     20405     20397     20393     20396     20398
     20398     20403     20401     20402     20398     20403     20401     20453
     20398     20403     20405     20406     20398     20403     20405     20407
     20398     20403     20405     20409     20399     20398     20403     20401
     20399     20398     20403     20404     20399     20398     20403     20405
     20400     20398     20403     20401     20400     20398     20403     20404
     20400     20398     20403     20405     20401     20403     20405     20406
     20401     20403     20405     20407     20401     20403     20405     20409
     20401     20453     20455     20456     20401     20453     20455     20457
     20401     20453     20455     20458     20402     20401     20403     20404
     20402     20401     20403     20405     20402     20401     20453     20454
     20402     20401     20453     20455     20403     20401     20453     20454
     20403     20401     20453     20455     20403     20405     20407     20408
     20403     20405     20409     20410     20403     20405     20409     20411
     20404     20403     20401     20453     20404     20403     20405     20406
     20404     20403     20405     20407     20404     20403     20405     20409
     20405     20403     20401     20453     20405     20409     20411     20412
     20405     20409     20411     20413     20406     20405     20407     20408
     20406     20405     20409     20410     20406     20405     20409     20411
     20407     20405     20409     20410     20407     20405     20409     20411
     20408     20407     20405     20409     20409     20411     20413     20414
     20409     20411     20413     20415     20409     20411     20413     20416
     20410     20409     20411     20412     20410     20409     20411     20413
     20411     20413     20416     20417     20411     20413     20416     20418
     20411     20413     20416     20419     20412     20411     20413     20414
     20412     20411     20413     20415     20412     20411     20413     20416
     20413     20416     20419     20420     20413     20416     20419     20421
     20413     20416     20419     20422     20414     20413     20416     20417
     20414     20413     20416     20418     20414     20413     20416     20419
     20415     20413     20416     20417     20415     20413     20416     20418
     20415     20413     20416     20419     20416     20419     20422     20423
     20416     20419     20422     20424     20416     20419     20422     20425
     20417     20416     20419     20420     20417     20416     20419     20421
     20417     20416     20419     20422     20418     20416     20419     20420
     20418     20416     20419     20421     20418     20416     20419     20422
     20419     20422     20425     20426     20419     20422     20425     20427
     20419     20422     20425     20428     20420     20419     20422     20423
     20420     20419     20422     20424     20420     20419     20422     20425
     20421     20419     20422     20423     20421     20419     20422     20424
     20421     20419     20422     20425     20422     20425     20428     20429
     20422     20425     20428     20430     20422     20425     20428     20431
     20423     20422     20425     20426     20423     20422     20425     20427
     20423     20422     20425     20428     20424     20422     20425     20426
     20424     20422     20425     20427     20424     20422     20425     20428
     20425     20428     20431     20432     20425     20428     20431     20433
     20425     20428     20431     20434     20426     20425     20428     20429
     20426     20425     20428     20430     20426     20425     20428     20431
     20427     20425     20428     20429     20427     20425     20428     20430
     20427     20425     20428     20431     20428     20431     20434     20435
     20428     20431     20434     20436     20428     20431     20434     20437
     20429     20428     20431     20432     20429     20428     20431     20433
     20429     20428     20431     20434     20430     20428     20431     20432
     20430     20428     20431     20433     20430     20428     20431     20434
     20431     20434     20437     20438     20431     20434     20437     20439
     20431     20434     20437     20440     20432     20431     20434     20435
     20432     20431     20434     20436     20432     20431     20434     20437
     20433     20431     20434     20435     20433     20431     20434     20436
     20433     20431     20434     20437     20434     20437     20440     20441
     20434     20437     20440     20442     20434     20437     20440     20443
     20435     20434     20437     20438     20435     20434     20437     20439
     20435     20434     20437     20440     20436     20434     20437     20438
     20436     20434     20437     20439     20436     20434     20437     20440
     20437     20440     20443     20444     20437     20440     20443     20445
     20437     20440     20443     20446     20438     20437     20440     20441
     20438     20437     20440     20442     20438     20437     20440     20443
     20439     20437     20440     20441     20439     20437     20440     20442
     20439     20437     20440     20443     20440     20443     20446     20447
     20440     20443     20446     20448     20440     20443     20446     20449
     20441     20440     20443     20444     20441     20440     20443     20445
     20441     20440     20443     20446     20442     20440     20443     20444
     20442     20440     20443     20445     20442     20440     20443     20446
     20443     20446     20449     20450     20443     20446     20449     20451
     20443     20446     20449     20452     20444     20443     20446     20447
     20444     20443     20446     20448     20444     20443     20446     20449
     20445     20443     20446     20447     20445     20443     20446     20448
     20445     20443     20446     20449     20447     20446     20449     20450
     20447     20446     20449     20451     20447     20446     20449     20452
     20448     20446     20449     20450     20448     20446     20449     20451
     20448     20446     20449     20452     20453     20455     20458     20459
     20453     20455     20458     20460     20453     20455     20458     20461
     20454     20453     20455     20456     20454     20453     20455     20457
     20454     20453     20455     20458     20455     20458     20461     20462
     20455     20458     20461     20463     20455     20458     20461     20464
     20456     20455     20458     20459     20456     20455     20458     20460
     20456     20455     20458     20461     20457     20455     20458     20459
     20457     20455     20458     20460     20457     20455     20458     20461
     20458     20461     20464     20465     20458     20461     20464     20466
     20458     20461     20464     20467     20459     20458     20461     20462
     20459     20458     20461     20463     20459     20458     20461     20464
     20460     20458     20461     20462     20460     20458     20461     20463
     20460     20458     20461     20464     20461     20464     20467     20468
     20461     20464     20467     20469     20461     20464     20467     20470
     20462     20461     20464     20465     20462     20461     20464     20466
     20462     20461     20464     20467     20463     20461     20464     20465
     20463     20461     20464     20466     20463     20461     20464     20467
     20464     20467     20470     20471     20464     20467     20470     20472
     20464     20467     20470     20473     20465     20464     20467     20468
     20465     20464     20467     20469     20465     20464     20467     20470
     20466     20464     20467     20468     20466     20464     20467     20469
     20466     20464     20467     20470     20467     20470     20473     20474
     20467     20470     20473     20475     20467     20470     20473     20476
     20468     20467     20470     20471     20468     20467     20470     20472
     20468     20467     20470     20473     20469     20467     20470     20471
     20469     20467     20470     20472     20469     20467     20470     20473
     20470     20473     20476     20477     20470     20473     20476     20478
     20471     20470     20473     20474     20471     20470     20473     20475
     20471     20470     20473     20476     20472     20470     20473     20474
     20472     20470     20473     20475     20472     20470     20473     20476
     20473     20476     20478     20479     20473     20476     20478     20480
     20474     20473     20476     20477     20474     20473     20476     20478
     20475     20473     20476     20477     20475     20473     20476     20478
     20476     20478     20480     20481     20476     20478     20480     20482
     20476     20478     20480     20483     20477     20476     20478     20479
     20477     20476     20478     20480     20478     20480     20483     20484
     20478     20480     20483     20485     20478     20480     20483     20486
     20479     20478     20480     20481     20479     20478     20480     20482
     20479     20478     20480     20483     20480     20483     20486     20487
     20480     20483     20486     20488     20480     20483     20486     20489
     20481     20480     20483     20484     20481     20480     20483     20485
     20481     20480     20483     20486     20482     20480     20483     20484
     20482     20480     20483     20485     20482     20480     20483     20486
     20483     20486     20489     20490     20483     20486     20489     20491
     20483     20486     20489     20492     20484     20483     20486     20487
     20484     20483     20486     20488     20484     20483     20486     20489
     20485     20483     20486     20487     20485     20483     20486     20488
     20485     20483     20486     20489     20486     20489     20492     20493
     20486     20489     20492     20494     20486     20489     20492     20495
     20487     20486     20489     20490     20487     20486     20489     20491
     20487     20486     20489     20492     20488     20486     20489     20490
     20488     20486     20489     20491     20488     20486     20489     20492
     20489     20492     20495     20496     20489     20492     20495     20497
     20489     20492     20495     20498     20490     20489     20492     20493
     20490     20489     20492     20494     20490     20489     20492     20495
     20491     20489     20492     20493     20491     20489     20492     20494
     20491     20489     20492     20495     20492     20495     20498     20499
     20492     20495     20498     20500     20492     20495     20498     20501
     20493     20492     20495     20496     20493     20492     20495     20497
     20493     20492     20495     20498     20494     20492     20495     20496
     20494     20492     20495     20497     20494     20492     20495     20498
     20495     20498     20501     20502     20495     20498     20501     20503
     20495     20498     20501     20504     20496     20495     20498     20499
     20496     20495     20498     20500     20496     20495     20498     20501
     20497     20495     20498     20499     20497     20495     20498     20500
     20497     20495     20498     20501     20499     20498     20501     20502
     20499     20498     20501     20503     20499     20498     20501     20504
     20500     20498     20501     20502     20500     20498     20501     20503
     20500     20498     20501     20504     20505     20518     20521     20522
     20505     20518     20521     20523     20505     20518     20521     20528
     20506     20505     20510     20511     20506     20505     20510     20512
     20506     20505     20510     20513     20506     20505     20514     20515
     20506     20505     20514     20516     20506     20505     20514     20517
     20506     20505     20518     20519     20506     20505     20518     20520
     20506     20505     20518     20521     20507     20506     20505     20510
     20507     20506     20505     20514     20507     20506     20505     20518
     20508     20506     20505     20510     20508     20506     20505     20514
     20508     20506     20505     20518     20509     20506     20505     20510
     20509     20506     20505     20514     20509     20506     20505     20518
     20510     20505     20514     20515     20510     20505     20514     20516
     20510     20505     20514     20517     20510     20505     20518     20519
     20510     20505     20518     20520     20510     20505     20518     20521
     20511     20510     20505     20514     20511     20510     20505     20518
     20512     20510     20505     20514     20512     20510     20505     20518
     20513     20510     20505     20514     20513     20510     20505     20518
     20514     20505     20518     20519     20514     20505     20518     20520
     20514     20505     20518     20521     20515     20514     20505     20518
     20516     20514     20505     20518     20517     20514     20505     20518
     20518     20521     20528     20524     20519     20518     20521     20522
     20519     20518     20521     20523     20519     20518     20521     20528
     20520     20518     20521     20522     20520     20518     20521     20523
     20520     20518     20521     20528     20521     20528     20524     20525
     20521     20528     20524     20526     20521     20528     20524     20527
     20522     20521     20528     20524     20523     20521     20528     20524
     20524     20527     20529     20530     20524     20527     20529     20531
     20524     20527     20529     20534     20525     20524     20527     20529
     20526     20524     20527     20529     20527     20529     20534     20532
     20527     20529     20534     20535     20527     20529     20534     20536
     20528     20524     20527     20529     20529     20534     20532     20533
     20529     20534     20532     20584     20529     20534     20536     20537
     20529     20534     20536     20538     20529     20534     20536     20540
     20530     20529     20534     20532     20530     20529     20534     20535
     20530     20529     20534     20536     20531     20529     20534     20532
     20531     20529     20534     20535     20531     20529     20534     20536
     20532     20534     20536     20537     20532     20534     20536     20538
     20532     20534     20536     20540     20532     20584     20586     20587
     20532     20584     20586     20588     20532     20584     20586     20589
     20533     20532     20534     20535     20533     20532     20534     20536
     20533     20532     20584     20585     20533     20532     20584     20586
     20534     20532     20584     20585     20534     20532     20584     20586
     20534     20536     20538     20539     20534     20536     20540     20541
     20534     20536     20540     20542     20535     20534     20532     20584
     20535     20534     20536     20537     20535     20534     20536     20538
     20535     20534     20536     20540     20536     20534     20532     20584
     20536     20540     20542     20543     20536     20540     20542     20544
     20537     20536     20538     20539     20537     20536     20540     20541
     20537     20536     20540     20542     20538     20536     20540     20541
     20538     20536     20540     20542     20539     20538     20536     20540
     20540     20542     20544     20545     20540     20542     20544     20546
     20540     20542     20544     20547     20541     20540     20542     20543
     20541     20540     20542     20544     20542     20544     20547     20548
     20542     20544     20547     20549     20542     20544     20547     20550
     20543     20542     20544     20545     20543     20542     20544     20546
     20543     20542     20544     20547     20544     20547     20550     20551
     20544     20547     20550     20552     20544     20547     20550     20553
     20545     20544     20547     20548     20545     20544     20547     20549
     20545     20544     20547     20550     20546     20544     20547     20548
     20546     20544     20547     20549     20546     20544     20547     20550
     20547     20550     20553     20554     20547     20550     20553     20555
     20547     20550     20553     20556     20548     20547     20550     20551
     20548     20547     20550     20552     20548     20547     20550     20553
     20549     20547     20550     20551     20549     20547     20550     20552
     20549     20547     20550     20553     20550     20553     20556     20557
     20550     20553     20556     20558     20550     20553     20556     20559
     20551     20550     20553     20554     20551     20550     20553     20555
     20551     20550     20553     20556     20552     20550     20553     20554
     20552     20550     20553     20555     20552     20550     20553     20556
     20553     20556     20559     20560     20553     20556     20559     20561
     20553     20556     20559     20562     20554     20553     20556     20557
     20554     20553     20556     20558     20554     20553     20556     20559
     20555     20553     20556     20557     20555     20553     20556     20558
     20555     20553     20556     20559     20556     20559     20562     20563
     20556     20559     20562     20564     20556     20559     20562     20565
     20557     20556     20559     20560     20557     20556     20559     20561
     20557     20556     20559     20562     20558     20556     20559     20560
     20558     20556     20559     20561     20558     20556     20559     20562
     20559     20562     20565     20566     20559     20562     20565     20567
     20559     20562     20565     20568     20560     20559     20562     20563
     20560     20559     20562     20564     20560     20559     20562     20565
     20561     20559     20562     20563     20561     20559     20562     20564
     20561     20559     20562     20565     20562     20565     20568     20569
     20562     20565     20568     20570     20562     20565     20568     20571
     20563     20562     20565     20566     20563     20562     20565     20567
     20563     20562     20565     20568     20564     20562     20565     20566
     20564     20562     20565     20567     20564     20562     20565     20568
     20565     20568     20571     20572     20565     20568     20571     20573
     20565     20568     20571     20574     20566     20565     20568     20569
     20566     20565     20568     20570     20566     20565     20568     20571
     20567     20565     20568     20569     20567     20565     20568     20570
     20567     20565     20568     20571     20568     20571     20574     20575
     20568     20571     20574     20576     20568     20571     20574     20577
     20569     20568     20571     20572     20569     20568     20571     20573
     20569     20568     20571     20574     20570     20568     20571     20572
     20570     20568     20571     20573     20570     20568     20571     20574
     20571     20574     20577     20578     20571     20574     20577     20579
     20571     20574     20577     20580     20572     20571     20574     20575
     20572     20571     20574     20576     20572     20571     20574     20577
     20573     20571     20574     20575     20573     20571     20574     20576
     20573     20571     20574     20577     20574     20577     20580     20581
     20574     20577     20580     20582     20574     20577     20580     20583
     20575     20574     20577     20578     20575     20574     20577     20579
     20575     20574     20577     20580     20576     20574     20577     20578
     20576     20574     20577     20579     20576     20574     20577     20580
     20578     20577     20580     20581     20578     20577     20580     20582
     20578     20577     20580     20583     20579     20577     20580     20581
     20579     20577     20580     20582     20579     20577     20580     20583
     20584     20586     20589     20590     20584     20586     20589     20591
     20584     20586     20589     20592     20585     20584     20586     20587
     20585     20584     20586     20588     20585     20584     20586     20589
     20586     20589     20592     20593     20586     20589     20592     20594
     20586     20589     20592     20595     20587     20586     20589     20590
     20587     20586     20589     20591     20587     20586     20589     20592
     20588     20586     20589     20590     20588     20586     20589     20591
     20588     20586     20589     20592     20589     20592     20595     20596
     20589     20592     20595     20597     20589     20592     20595     20598
     20590     20589     20592     20593     20590     20589     20592     20594
     20590     20589     20592     20595     20591     20589     20592     20593
     20591     20589     20592     20594     20591     20589     20592     20595
     20592     20595     20598     20599     20592     20595     20598     20600
     20592     20595     20598     20601     20593     20592     20595     20596
     20593     20592     20595     20597     20593     20592     20595     20598
     20594     20592     20595     20596     20594     20592     20595     20597
     20594     20592     20595     20598     20595     20598     20601     20602
     20595     20598     20601     20603     20595     20598     20601     20604
     20596     20595     20598     20599     20596     20595     20598     20600
     20596     20595     20598     20601     20597     20595     20598     20599
     20597     20595     20598     20600     20597     20595     20598     20601
     20598     20601     20604     20605     20598     20601     20604     20606
     20598     20601     20604     20607     20599     20598     20601     20602
     20599     20598     20601     20603     20599     20598     20601     20604
     20600     20598     20601     20602     20600     20598     20601     20603
     20600     20598     20601     20604     20601     20604     20607     20608
     20601     20604     20607     20609     20602     20601     20604     20605
     20602     20601     20604     20606     20602     20601     20604     20607
     20603     20601     20604     20605     20603     20601     20604     20606
     20603     20601     20604     20607     20604     20607     20609     20610
     20604     20607     20609     20611     20605     20604     20607     20608
     20605     20604     20607     20609     20606     20604     20607     20608
     20606     20604     20607     20609     20607     20609     20611     20612
     20607     20609     20611     20613     20607     20609     20611     20614
     20608     20607     20609     20610     20608     20607     20609     20611
     20609     20611     20614     20615     20609     20611     20614     20616
     20609     20611     20614     20617     20610     20609     20611     20612
     20610     20609     20611     20613     20610     20609     20611     20614
     20611     20614     20617     20618     20611     20614     20617     20619
     20611     20614     20617     20620     20612     20611     20614     20615
     20612     20611     20614     20616     20612     20611     20614     20617
     20613     20611     20614     20615     20613     20611     20614     20616
     20613     20611     20614     20617     20614     20617     20620     20621
     20614     20617     20620     20622     20614     20617     20620     20623
     20615     20614     20617     20618     20615     20614     20617     20619
     20615     20614     20617     20620     20616     20614     20617     20618
     20616     20614     20617     20619     20616     20614     20617     20620
     20617     20620     20623     20624     20617     20620     20623     20625
     20617     20620     20623     20626     20618     20617     20620     20621
     20618     20617     20620     20622     20618     20617     20620     20623
     20619     20617     20620     20621     20619     20617     20620     20622
     20619     20617     20620     20623     20620     20623     20626     20627
     20620     20623     20626     20628     20620     20623     20626     20629
     20621     20620     20623     20624     20621     20620     20623     20625
     20621     20620     20623     20626     20622     20620     20623     20624
     20622     20620     20623     20625     20622     20620     20623     20626
     20623     20626     20629     20630     20623     20626     20629     20631
     20623     20626     20629     20632     20624     20623     20626     20627
     20624     20623     20626     20628     20624     20623     20626     20629
     20625     20623     20626     20627     20625     20623     20626     20628
     20625     20623     20626     20629     20626     20629     20632     20633
     20626     20629     20632     20634     20626     20629     20632     20635
     20627     20626     20629     20630     20627     20626     20629     20631
     20627     20626     20629     20632     20628     20626     20629     20630
     20628     20626     20629     20631     20628     20626     20629     20632
     20630     20629     20632     20633     20630     20629     20632     20634
     20630     20629     20632     20635     20631     20629     20632     20633
     20631     20629     20632     20634     20631     20629     20632     20635
     20636     20640     20643     20644     20636     20640     20643     20674
     20636     20682     20679     20674     20636     20682     20679     20680
     20636     20682     20679     20681     20637     20636     20638     20639
     20637     20636     20640     20641     20637     20636     20640     20642
     20637     20636     20640     20643     20637     20636     20682     20679
     20637     20636     20682     20683     20637     20636     20682     20684
     20638     20636     20640     20641     20638     20636     20640     20642
     20638     20636     20640     20643     20638     20636     20682     20679
     20638     20636     20682     20683     20638     20636     20682     20684
     20639     20638     20636     20640     20639     20638     20636     20682
     20640     20636     20682     20679     20640     20636     20682     20683
     20640     20636     20682     20684     20640     20643     20644     20645
     20640     20643     20644     20646     20640     20643     20674     20672
     20640     20643     20674     20675     20640     20643     20674     20679
     20641     20640     20636     20682     20641     20640     20643     20644
     20641     20640     20643     20674     20642     20640     20636     20682
     20642     20640     20643     20644     20642     20640     20643     20674
     20643     20640     20636     20682     20643     20644     20646     20647
     20643     20644     20646     20648     20643     20644     20646     20649
     20643     20674     20672     20649     20643     20674     20672     20669
     20643     20674     20672     20673     20643     20674     20675     20676
     20643     20674     20675     20677     20643     20674     20675     20678
     20643     20674     20679     20680     20643     20674     20679     20681
     20643     20674     20679     20682     20644     20643     20674     20672
     20644     20643     20674     20675     20644     20643     20674     20679
     20644     20646     20649     20650     20644     20646     20649     20651
     20644     20646     20649     20672     20645     20644     20643     20674
     20645     20644     20646     20647     20645     20644     20646     20648
     20645     20644     20646     20649     20646     20644     20643     20674
     20646     20649     20651     20652     20646     20649     20651     20653
     20646     20649     20651     20661     20646     20649     20672     20669
     20646     20649     20672     20673     20646     20649     20672     20674
     20647     20646     20649     20650     20647     20646     20649     20651
     20647     20646     20649     20672     20648     20646     20649     20650
     20648     20646     20649     20651     20648     20646     20649     20672
     20649     20651     20653     20654     20649     20651     20653     20655
     20649     20651     20653     20656     20649     20651     20661     20659
     20649     20651     20661     20662     20649     20651     20661     20666
     20649     20672     20669     20666     20649     20672     20669     20670
     20649     20672     20669     20671     20649     20672     20674     20675
     20649     20672     20674     20679     20650     20649     20651     20652
     20650     20649     20651     20653     20650     20649     20651     20661
     20650     20649     20672     20669     20650     20649     20672     20673
     20650     20649     20672     20674     20651     20649     20672     20669
     20651     20649     20672     20673     20651     20649     20672     20674
     20651     20653     20656     20657     20651     20653     20656     20658
     20651     20653     20656     20659     20651     20661     20659     20656
     20651     20661     20659     20660     20651     20661     20659     20685
     20651     20661     20662     20663     20651     20661     20662     20664
     20651     20661     20662     20665     20651     20661     20666     20667
     20651     20661     20666     20668     20651     20661     20666     20669
     20652     20651     20649     20672     20652     20651     20653     20654
     20652     20651     20653     20655     20652     20651     20653     20656
     20652     20651     20661     20659     20652     20651     20661     20662
     20652     20651     20661     20666     20653     20651     20649     20672
     20653     20651     20661     20659     20653     20651     20661     20662
     20653     20651     20661     20666     20653     20656     20659     20660
     20653     20656     20659     20661     20653     20656     20659     20685
     20654     20653     20651     20661     20654     20653     20656     20657
     20654     20653     20656     20658     20654     20653     20656     20659
     20655     20653     20651     20661     20655     20653     20656     20657
     20655     20653     20656     20658     20655     20653     20656     20659
     20656     20653     20651     20661     20656     20659     20661     20662
     20656     20659     20661     20666     20656     20659     20685     20686
     20656     20659     20685     20687     20656     20659     20685     20691
     20657     20656     20659     20660     20657     20656     20659     20661
     20657     20656     20659     20685     20658     20656     20659     20660
     20658     20656     20659     20661     20658     20656     20659     20685
     20659     20661     20662     20663     20659     20661     20662     20664
     20659     20661     20662     20665     20659     20661     20666     20667
     20659     20661     20666     20668     20659     20661     20666     20669
     20659     20685     20687     20688     20659     20685     20687     20689
     20659     20685     20687     20690     20659     20685     20691     20692
     20659     20685     20691     20693     20659     20685     20691     20694
     20660     20659     20661     20662     20660     20659     20661     20666
     20660     20659     20685     20686     20660     20659     20685     20687
     20660     20659     20685     20691     20661     20651     20649     20672
     20661     20659     20685     20686     20661     20659     20685     20687
     20661     20659     20685     20691     20661     20666     20669     20670
     20661     20666     20669     20671     20661     20666     20669     20672
     20662     20661     20659     20685     20662     20661     20666     20667
     20662     20661     20666     20668     20662     20661     20666     20669
     20663     20662     20661     20666     20664     20662     20661     20666
     20665     20662     20661     20666     20666     20661     20659     20685
     20666     20669     20672     20673     20666     20669     20672     20674
     20667     20666     20669     20670     20667     20666     20669     20671
     20667     20666     20669     20672     20668     20666     20669     20670
     20668     20666     20669     20671     20668     20666     20669     20672
     20669     20672     20674     20675     20669     20672     20674     20679
     20670     20669     20672     20673     20670     20669     20672     20674
     20671     20669     20672     20673     20671     20669     20672     20674
     20672     20674     20675     20676     20672     20674     20675     20677
     20672     20674     20675     20678     20672     20674     20679     20680
     20672     20674     20679     20681     20672     20674     20679     20682
     20673     20672     20674     20675     20673     20672     20674     20679
     20674     20679     20682     20683     20674     20679     20682     20684
     20675     20674     20679     20680     20675     20674     20679     20681
     20675     20674     20679     20682     20676     20675     20674     20679
     20677     20675     20674     20679     20678     20675     20674     20679
     20680     20679     20682     20683     20680     20679     20682     20684
     20681     20679     20682     20683     20681     20679     20682     20684
     20685     20691     20694     20695     20685     20691     20694     20696
     20685     20691     20694     20697     20686     20685     20687     20688
     20686     20685     20687     20689     20686     20685     20687     20690
     20686     20685     20691     20692     20686     20685     20691     20693
     20686     20685     20691     20694     20687     20685     20691     20692
     20687     20685     20691     20693     20687     20685     20691     20694
     20688     20687     20685     20691     20689     20687     20685     20691
     20690     20687     20685     20691     20691     20694     20697     20698
     20691     20694     20697     20699     20691     20694     20697     20700
     20692     20691     20694     20695     20692     20691     20694     20696
     20692     20691     20694     20697     20693     20691     20694     20695
     20693     20691     20694     20696     20693     20691     20694     20697
     20694     20697     20700     20701     20694     20697     20700     20702
     20694     20697     20700     20706     20695     20694     20697     20698
     20695     20694     20697     20699     20695     20694     20697     20700
     20696     20694     20697     20698     20696     20694     20697     20699
     20696     20694     20697     20700     20697     20700     20702     20703
     20697     20700     20702     20704     20697     20700     20702     20705
     20697     20700     20706     20707     20697     20700     20706     20708
     20697     20700     20706     20709     20698     20697     20700     20701
     20698     20697     20700     20702     20698     20697     20700     20706
     20699     20697     20700     20701     20699     20697     20700     20702
     20699     20697     20700     20706     20701     20700     20702     20703
     20701     20700     20702     20704     20701     20700     20702     20705
     20701     20700     20706     20707     20701     20700     20706     20708
     20701     20700     20706     20709     20702     20700     20706     20707
     20702     20700     20706     20708     20702     20700     20706     20709
     20703     20702     20700     20706     20704     20702     20700     20706
     20705     20702     20700     20706     20710     20714     20717     20718
     20710     20714     20717     20748     20710     20756     20753     20748
     20710     20756     20753     20754     20710     20756     20753     20755
     20711     20710     20712     20713     20711     20710     20714     20715
     20711     20710     20714     20716     20711     20710     20714     20717
     20711     20710     20756     20753     20711     20710     20756     20757
     20711     20710     20756     20758     20712     20710     20714     20715
     20712     20710     20714     20716     20712     20710     20714     20717
     20712     20710     20756     20753     20712     20710     20756     20757
     20712     20710     20756     20758     20713     20712     20710     20714
     20713     20712     20710     20756     20714     20710     20756     20753
     20714     20710     20756     20757     20714     20710     20756     20758
     20714     20717     20718     20719     20714     20717     20718     20720
     20714     20717     20748     20746     20714     20717     20748     20749
     20714     20717     20748     20753     20715     20714     20710     20756
     20715     20714     20717     20718     20715     20714     20717     20748
     20716     20714     20710     20756     20716     20714     20717     20718
     20716     20714     20717     20748     20717     20714     20710     20756
     20717     20718     20720     20721     20717     20718     20720     20722
     20717     20718     20720     20723     20717     20748     20746     20723
     20717     20748     20746     20743     20717     20748     20746     20747
     20717     20748     20749     20750     20717     20748     20749     20751
     20717     20748     20749     20752     20717     20748     20753     20754
     20717     20748     20753     20755     20717     20748     20753     20756
     20718     20717     20748     20746     20718     20717     20748     20749
     20718     20717     20748     20753     20718     20720     20723     20724
     20718     20720     20723     20725     20718     20720     20723     20746
     20719     20718     20717     20748     20719     20718     20720     20721
     20719     20718     20720     20722     20719     20718     20720     20723
     20720     20718     20717     20748     20720     20723     20725     20726
     20720     20723     20725     20727     20720     20723     20725     20735
     20720     20723     20746     20743     20720     20723     20746     20747
     20720     20723     20746     20748     20721     20720     20723     20724
     20721     20720     20723     20725     20721     20720     20723     20746
     20722     20720     20723     20724     20722     20720     20723     20725
     20722     20720     20723     20746     20723     20725     20727     20728
     20723     20725     20727     20729     20723     20725     20727     20730
     20723     20725     20735     20733     20723     20725     20735     20736
     20723     20725     20735     20740     20723     20746     20743     20740
     20723     20746     20743     20744     20723     20746     20743     20745
     20723     20746     20748     20749     20723     20746     20748     20753
     20724     20723     20725     20726     20724     20723     20725     20727
     20724     20723     20725     20735     20724     20723     20746     20743
     20724     20723     20746     20747     20724     20723     20746     20748
     20725     20723     20746     20743     20725     20723     20746     20747
     20725     20723     20746     20748     20725     20727     20730     20731
     20725     20727     20730     20732     20725     20727     20730     20733
     20725     20735     20733     20730     20725     20735     20733     20734
     20725     20735     20733     20759     20725     20735     20736     20737
     20725     20735     20736     20738     20725     20735     20736     20739
     20725     20735     20740     20741     20725     20735     20740     20742
     20725     20735     20740     20743     20726     20725     20723     20746
     20726     20725     20727     20728     20726     20725     20727     20729
     20726     20725     20727     20730     20726     20725     20735     20733
     20726     20725     20735     20736     20726     20725     20735     20740
     20727     20725     20723     20746     20727     20725     20735     20733
     20727     20725     20735     20736     20727     20725     20735     20740
     20727     20730     20733     20734     20727     20730     20733     20735
     20727     20730     20733     20759     20728     20727     20725     20735
     20728     20727     20730     20731     20728     20727     20730     20732
     20728     20727     20730     20733     20729     20727     20725     20735
     20729     20727     20730     20731     20729     20727     20730     20732
     20729     20727     20730     20733     20730     20727     20725     20735
     20730     20733     20735     20736     20730     20733     20735     20740
     20730     20733     20759     20760     20730     20733     20759     20761
     20730     20733     20759     20765     20731     20730     20733     20734
     20731     20730     20733     20735     20731     20730     20733     20759
     20732     20730     20733     20734     20732     20730     20733     20735
     20732     20730     20733     20759     20733     20735     20736     20737
     20733     20735     20736     20738     20733     20735     20736     20739
     20733     20735     20740     20741     20733     20735     20740     20742
     20733     20735     20740     20743     20733     20759     20761     20762
     20733     20759     20761     20763     20733     20759     20761     20764
     20733     20759     20765     20766     20733     20759     20765     20767
     20733     20759     20765     20768     20734     20733     20735     20736
     20734     20733     20735     20740     20734     20733     20759     20760
     20734     20733     20759     20761     20734     20733     20759     20765
     20735     20725     20723     20746     20735     20733     20759     20760
     20735     20733     20759     20761     20735     20733     20759     20765
     20735     20740     20743     20744     20735     20740     20743     20745
     20735     20740     20743     20746     20736     20735     20733     20759
     20736     20735     20740     20741     20736     20735     20740     20742
     20736     20735     20740     20743     20737     20736     20735     20740
     20738     20736     20735     20740     20739     20736     20735     20740
     20740     20735     20733     20759     20740     20743     20746     20747
     20740     20743     20746     20748     20741     20740     20743     20744
     20741     20740     20743     20745     20741     20740     20743     20746
     20742     20740     20743     20744     20742     20740     20743     20745
     20742     20740     20743     20746     20743     20746     20748     20749
     20743     20746     20748     20753     20744     20743     20746     20747
     20744     20743     20746     20748     20745     20743     20746     20747
     20745     20743     20746     20748     20746     20748     20749     20750
     20746     20748     20749     20751     20746     20748     20749     20752
     20746     20748     20753     20754     20746     20748     20753     20755
     20746     20748     20753     20756     20747     20746     20748     20749
     20747     20746     20748     20753     20748     20753     20756     20757
     20748     20753     20756     20758     20749     20748     20753     20754
     20749     20748     20753     20755     20749     20748     20753     20756
     20750     20749     20748     20753     20751     20749     20748     20753
     20752     20749     20748     20753     20754     20753     20756     20757
     20754     20753     20756     20758     20755     20753     20756     20757
     20755     20753     20756     20758     20759     20765     20768     20769
     20759     20765     20768     20770     20759     20765     20768     20771
     20760     20759     20761     20762     20760     20759     20761     20763
     20760     20759     20761     20764     20760     20759     20765     20766
     20760     20759     20765     20767     20760     20759     20765     20768
     20761     20759     20765     20766     20761     20759     20765     20767
     20761     20759     20765     20768     20762     20761     20759     20765
     20763     20761     20759     20765     20764     20761     20759     20765
     20765     20768     20771     20772     20765     20768     20771     20773
     20765     20768     20771     20774     20766     20765     20768     20769
     20766     20765     20768     20770     20766     20765     20768     20771
     20767     20765     20768     20769     20767     20765     20768     20770
     20767     20765     20768     20771     20768     20771     20774     20775
     20768     20771     20774     20776     20768     20771     20774     20780
     20769     20768     20771     20772     20769     20768     20771     20773
     20769     20768     20771     20774     20770     20768     20771     20772
     20770     20768     20771     20773     20770     20768     20771     20774
     20771     20774     20776     20777     20771     20774     20776     20778
     20771     20774     20776     20779     20771     20774     20780     20781
     20771     20774     20780     20782     20771     20774     20780     20783
     20772     20771     20774     20775     20772     20771     20774     20776
     20772     20771     20774     20780     20773     20771     20774     20775
     20773     20771     20774     20776     20773     20771     20774     20780
     20775     20774     20776     20777     20775     20774     20776     20778
     20775     20774     20776     20779     20775     20774     20780     20781
     20775     20774     20780     20782     20775     20774     20780     20783
     20776     20774     20780     20781     20776     20774     20780     20782
     20776     20774     20780     20783     20777     20776     20774     20780
     20778     20776     20774     20780     20779     20776     20774     20780
     20784     20788     20791     20792     20784     20788     20791     20793
     20784     20788     20791     20797     20785     20784     20788     20789
     20785     20784     20788     20790     20785     20784     20788     20791
     20786     20784     20788     20789     20786     20784     20788     20790
     20786     20784     20788     20791     20787     20784     20788     20789
     20787     20784     20788     20790     20787     20784     20788     20791
     20788     20791     20797     20794     20789     20788     20791     20792
     20789     20788     20791     20793     20789     20788     20791     20797
     20790     20788     20791     20792     20790     20788     20791     20793
     20790     20788     20791     20797     20791     20797     20794     20795
     20791     20797     20794     20796     20791     20797     20794     20798
     20792     20791     20797     20794     20793     20791     20797     20794
     20794     20798     20799     20800     20794     20798     20799     20801
     20794     20798     20799     20802     20795     20794     20798     20799
     20796     20794     20798     20799     20797     20794     20798     20799
     20798     20799     20802     20803     20798     20799     20802     20804
     20798     20799     20802     20810     20799     20802     20804     20805
     20799     20802     20810     20811     20799     20802     20810     20812
     20799     20802     20810     20813     20800     20799     20802     20803
     20800     20799     20802     20804     20800     20799     20802     20810
     20801     20799     20802     20803     20801     20799     20802     20804
     20801     20799     20802     20810     20802     20804     20805     20806
     20802     20804     20805     20807     20802     20810     20813     20814
     20803     20802     20804     20805     20803     20802     20810     20811
     20803     20802     20810     20812     20803     20802     20810     20813
     20804     20802     20810     20811     20804     20802     20810     20812
     20804     20802     20810     20813     20804     20805     20807     20808
     20804     20805     20807     20809     20804     20805     20807     20819
     20805     20804     20802     20810     20805     20807     20819     20820
     20805     20807     20819     20821     20805     20807     20819     20822
     20806     20805     20807     20808     20806     20805     20807     20809
     20806     20805     20807     20819     20807     20819     20822     20823
     20807     20819     20822     20824     20807     20819     20822     20825
     20808     20807     20819     20820     20808     20807     20819     20821
     20808     20807     20819     20822     20809     20807     20819     20820
     20809     20807     20819     20821     20809     20807     20819     20822
     20810     20813     20814     20815     20810     20813     20814     20816
     20811     20810     20813     20814     20812     20810     20813     20814
     20813     20814     20816     20817     20813     20814     20816     20818
     20813     20814     20816     20866     20814     20816     20866     20867
     20814     20816     20866     20868     20814     20816     20866     20869
     20815     20814     20816     20817     20815     20814     20816     20818
     20815     20814     20816     20866     20816     20866     20869     20870
     20816     20866     20869     20871     20816     20866     20869     20872
     20817     20816     20866     20867     20817     20816     20866     20868
     20817     20816     20866     20869     20818     20816     20866     20867
     20818     20816     20866     20868     20818     20816     20866     20869
     20819     20822     20825     20826     20819     20822     20825     20827
     20820     20819     20822     20823     20820     20819     20822     20824
     20820     20819     20822     20825     20821     20819     20822     20823
     20821     20819     20822     20824     20821     20819     20822     20825
     20822     20825     20827     20828     20822     20825     20827     20829
     20823     20822     20825     20826     20823     20822     20825     20827
     20824     20822     20825     20826     20824     20822     20825     20827
     20825     20827     20829     20830     20825     20827     20829     20831
     20825     20827     20829     20832     20826     20825     20827     20828
     20826     20825     20827     20829     20827     20829     20832     20833
     20827     20829     20832     20834     20828     20827     20829     20830
     20828     20827     20829     20831     20828     20827     20829     20832
     20829     20832     20834     20835     20829     20832     20834     20836
     20830     20829     20832     20833     20830     20829     20832     20834
     20831     20829     20832     20833     20831     20829     20832     20834
     20832     20834     20836     20837     20832     20834     20836     20838
     20832     20834     20836     20839     20833     20832     20834     20835
     20833     20832     20834     20836     20834     20836     20839     20840
     20834     20836     20839     20841     20835     20834     20836     20837
     20835     20834     20836     20838     20835     20834     20836     20839
     20836     20839     20841     20842     20836     20839     20841     20843
     20837     20836     20839     20840     20837     20836     20839     20841
     20838     20836     20839     20840     20838     20836     20839     20841
     20839     20841     20843     20844     20839     20841     20843     20845
     20839     20841     20843     20846     20840     20839     20841     20842
     20840     20839     20841     20843     20841     20843     20846     20847
     20841     20843     20846     20848     20842     20841     20843     20844
     20842     20841     20843     20845     20842     20841     20843     20846
     20843     20846     20848     20849     20843     20846     20848     20850
     20844     20843     20846     20847     20844     20843     20846     20848
     20845     20843     20846     20847     20845     20843     20846     20848
     20846     20848     20850     20851     20846     20848     20850     20852
     20846     20848     20850     20853     20847     20846     20848     20849
     20847     20846     20848     20850     20848     20850     20853     20854
     20848     20850     20853     20855     20848     20850     20853     20856
     20849     20848     20850     20851     20849     20848     20850     20852
     20849     20848     20850     20853     20850     20853     20856     20857
     20850     20853     20856     20858     20850     20853     20856     20859
     20851     20850     20853     20854     20851     20850     20853     20855
     20851     20850     20853     20856     20852     20850     20853     20854
     20852     20850     20853     20855     20852     20850     20853     20856
     20853     20856     20859     20860     20853     20856     20859     20861
     20853     20856     20859     20862     20854     20853     20856     20857
     20854     20853     20856     20858     20854     20853     20856     20859
     20855     20853     20856     20857     20855     20853     20856     20858
     20855     20853     20856     20859     20856     20859     20862     20863
     20856     20859     20862     20864     20856     20859     20862     20865
     20857     20856     20859     20860     20857     20856     20859     20861
     20857     20856     20859     20862     20858     20856     20859     20860
     20858     20856     20859     20861     20858     20856     20859     20862
     20860     20859     20862     20863     20860     20859     20862     20864
     20860     20859     20862     20865     20861     20859     20862     20863
     20861     20859     20862     20864     20861     20859     20862     20865
     20866     20869     20872     20873     20866     20869     20872     20874
     20866     20869     20872     20875     20867     20866     20869     20870
     20867     20866     20869     20871     20867     20866     20869     20872
     20868     20866     20869     20870     20868     20866     20869     20871
     20868     20866     20869     20872     20869     20872     20875     20876
     20869     20872     20875     20877     20869     20872     20875     20878
     20870     20869     20872     20873     20870     20869     20872     20874
     20870     20869     20872     20875     20871     20869     20872     20873
     20871     20869     20872     20874     20871     20869     20872     20875
     20872     20875     20878     20879     20872     20875     20878     20880
     20872     20875     20878     20881     20873     20872     20875     20876
     20873     20872     20875     20877     20873     20872     20875     20878
     20874     20872     20875     20876     20874     20872     20875     20877
     20874     20872     20875     20878     20875     20878     20881     20882
     20875     20878     20881     20883     20875     20878     20881     20884
     20876     20875     20878     20879     20876     20875     20878     20880
     20876     20875     20878     20881     20877     20875     20878     20879
     20877     20875     20878     20880     20877     20875     20878     20881
     20878     20881     20884     20885     20878     20881     20884     20886
     20878     20881     20884     20887     20879     20878     20881     20882
     20879     20878     20881     20883     20879     20878     20881     20884
     20880     20878     20881     20882     20880     20878     20881     20883
     20880     20878     20881     20884     20881     20884     20887     20888
     20881     20884     20887     20889     20881     20884     20887     20890
     20882     20881     20884     20885     20882     20881     20884     20886
     20882     20881     20884     20887     20883     20881     20884     20885
     20883     20881     20884     20886     20883     20881     20884     20887
     20884     20887     20890     20891     20884     20887     20890     20892
     20884     20887     20890     20893     20885     20884     20887     20888
     20885     20884     20887     20889     20885     20884     20887     20890
     20886     20884     20887     20888     20886     20884     20887     20889
     20886     20884     20887     20890     20887     20890     20893     20894
     20887     20890     20893     20895     20887     20890     20893     20896
     20888     20887     20890     20891     20888     20887     20890     20892
     20888     20887     20890     20893     20889     20887     20890     20891
     20889     20887     20890     20892     20889     20887     20890     20893
     20890     20893     20896     20897     20890     20893     20896     20898
     20890     20893     20896     20899     20891     20890     20893     20894
     20891     20890     20893     20895     20891     20890     20893     20896
     20892     20890     20893     20894     20892     20890     20893     20895
     20892     20890     20893     20896     20893     20896     20899     20900
     20893     20896     20899     20901     20893     20896     20899     20902
     20894     20893     20896     20897     20894     20893     20896     20898
     20894     20893     20896     20899     20895     20893     20896     20897
     20895     20893     20896     20898     20895     20893     20896     20899
     20896     20899     20902     20903     20896     20899     20902     20904
     20896     20899     20902     20905     20897     20896     20899     20900
     20897     20896     20899     20901     20897     20896     20899     20902
     20898     20896     20899     20900     20898     20896     20899     20901
     20898     20896     20899     20902     20899     20902     20905     20906
     20899     20902     20905     20907     20899     20902     20905     20908
     20900     20899     20902     20903     20900     20899     20902     20904
     20900     20899     20902     20905     20901     20899     20902     20903
     20901     20899     20902     20904     20901     20899     20902     20905
     20902     20905     20908     20909     20902     20905     20908     20910
     20902     20905     20908     20911     20903     20902     20905     20906
     20903     20902     20905     20907     20903     20902     20905     20908
     20904     20902     20905     20906     20904     20902     20905     20907
     20904     20902     20905     20908     20905     20908     20911     20912
     20905     20908     20911     20913     20905     20908     20911     20914
     20906     20905     20908     20909     20906     20905     20908     20910
     20906     20905     20908     20911     20907     20905     20908     20909
     20907     20905     20908     20910     20907     20905     20908     20911
     20909     20908     20911     20912     20909     20908     20911     20913
     20909     20908     20911     20914     20910     20908     20911     20912
     20910     20908     20911     20913     20910     20908     20911     20914
     20915     20928     20931     20932     20915     20928     20931     20933
     20915     20928     20931     20937     20916     20915     20920     20921
     20916     20915     20920     20922     20916     20915     20920     20923
     20916     20915     20924     20925     20916     20915     20924     20926
     20916     20915     20924     20927     20916     20915     20928     20929
     20916     20915     20928     20930     20916     20915     20928     20931
     20917     20916     20915     20920     20917     20916     20915     20924
     20917     20916     20915     20928     20918     20916     20915     20920
     20918     20916     20915     20924     20918     20916     20915     20928
     20919     20916     20915     20920     20919     20916     20915     20924
     20919     20916     20915     20928     20920     20915     20924     20925
     20920     20915     20924     20926     20920     20915     20924     20927
     20920     20915     20928     20929     20920     20915     20928     20930
     20920     20915     20928     20931     20921     20920     20915     20924
     20921     20920     20915     20928     20922     20920     20915     20924
     20922     20920     20915     20928     20923     20920     20915     20924
     20923     20920     20915     20928     20924     20915     20928     20929
     20924     20915     20928     20930     20924     20915     20928     20931
     20925     20924     20915     20928     20926     20924     20915     20928
     20927     20924     20915     20928     20928     20931     20937     20934
     20929     20928     20931     20932     20929     20928     20931     20933
     20929     20928     20931     20937     20930     20928     20931     20932
     20930     20928     20931     20933     20930     20928     20931     20937
     20931     20937     20934     20935     20931     20937     20934     20936
     20931     20937     20934     20938     20932     20931     20937     20934
     20933     20931     20937     20934     20934     20938     20939     20940
     20934     20938     20939     20941     20934     20938     20939     20942
     20935     20934     20938     20939     20936     20934     20938     20939
     20937     20934     20938     20939     20938     20939     20942     20943
     20938     20939     20942     20944     20938     20939     20942     20950
     20939     20942     20944     20945     20939     20942     20950     20951
     20939     20942     20950     20952     20939     20942     20950     20953
     20940     20939     20942     20943     20940     20939     20942     20944
     20940     20939     20942     20950     20941     20939     20942     20943
     20941     20939     20942     20944     20941     20939     20942     20950
     20942     20944     20945     20946     20942     20944     20945     20947
     20942     20950     20953     20954     20943     20942     20944     20945
     20943     20942     20950     20951     20943     20942     20950     20952
     20943     20942     20950     20953     20944     20942     20950     20951
     20944     20942     20950     20952     20944     20942     20950     20953
     20944     20945     20947     20948     20944     20945     20947     20949
     20944     20945     20947     20959     20945     20944     20942     20950
     20945     20947     20959     20960     20945     20947     20959     20961
     20945     20947     20959     20962     20946     20945     20947     20948
     20946     20945     20947     20949     20946     20945     20947     20959
     20947     20959     20962     20963     20947     20959     20962     20964
     20947     20959     20962     20965     20948     20947     20959     20960
     20948     20947     20959     20961     20948     20947     20959     20962
     20949     20947     20959     20960     20949     20947     20959     20961
     20949     20947     20959     20962     20950     20953     20954     20955
     20950     20953     20954     20956     20951     20950     20953     20954
     20952     20950     20953     20954     20953     20954     20956     20957
     20953     20954     20956     20958     20953     20954     20956     21004
     20954     20956     21004     21005     20954     20956     21004     21006
     20954     20956     21004     21007     20955     20954     20956     20957
     20955     20954     20956     20958     20955     20954     20956     21004
     20956     21004     21007     21008     20956     21004     21007     21009
     20956     21004     21007     21010     20957     20956     21004     21005
     20957     20956     21004     21006     20957     20956     21004     21007
     20958     20956     21004     21005     20958     20956     21004     21006
     20958     20956     21004     21007     20959     20962     20965     20966
     20959     20962     20965     20967     20959     20962     20965     20968
     20960     20959     20962     20963     20960     20959     20962     20964
     20960     20959     20962     20965     20961     20959     20962     20963
     20961     20959     20962     20964     20961     20959     20962     20965
     20962     20965     20968     20969     20962     20965     20968     20970
     20962     20965     20968     20971     20963     20962     20965     20966
     20963     20962     20965     20967     20963     20962     20965     20968
     20964     20962     20965     20966     20964     20962     20965     20967
     20964     20962     20965     20968     20965     20968     20971     20972
     20965     20968     20971     20973     20965     20968     20971     20974
     20966     20965     20968     20969     20966     20965     20968     20970
     20966     20965     20968     20971     20967     20965     20968     20969
     20967     20965     20968     20970     20967     20965     20968     20971
     20968     20971     20974     20975     20968     20971     20974     20976
     20968     20971     20974     20977     20969     20968     20971     20972
     20969     20968     20971     20973     20969     20968     20971     20974
     20970     20968     20971     20972     20970     20968     20971     20973
     20970     20968     20971     20974     20971     20974     20977     20978
     20971     20974     20977     20979     20972     20971     20974     20975
     20972     20971     20974     20976     20972     20971     20974     20977
     20973     20971     20974     20975     20973     20971     20974     20976
     20973     20971     20974     20977     20974     20977     20979     20980
     20974     20977     20979     20981     20975     20974     20977     20978
     20975     20974     20977     20979     20976     20974     20977     20978
     20976     20974     20977     20979     20977     20979     20981     20982
     20977     20979     20981     20983     20977     20979     20981     20984
     20978     20977     20979     20980     20978     20977     20979     20981
     20979     20981     20984     20985     20979     20981     20984     20986
     20980     20979     20981     20982     20980     20979     20981     20983
     20980     20979     20981     20984     20981     20984     20986     20987
     20981     20984     20986     20988     20982     20981     20984     20985
     20982     20981     20984     20986     20983     20981     20984     20985
     20983     20981     20984     20986     20984     20986     20988     20989
     20984     20986     20988     20990     20984     20986     20988     20991
     20985     20984     20986     20987     20985     20984     20986     20988
     20986     20988     20991     20992     20986     20988     20991     20993
     20986     20988     20991     20994     20987     20986     20988     20989
     20987     20986     20988     20990     20987     20986     20988     20991
     20988     20991     20994     20995     20988     20991     20994     20996
     20988     20991     20994     20997     20989     20988     20991     20992
     20989     20988     20991     20993     20989     20988     20991     20994
     20990     20988     20991     20992     20990     20988     20991     20993
     20990     20988     20991     20994     20991     20994     20997     20998
     20991     20994     20997     20999     20991     20994     20997     21000
     20992     20991     20994     20995     20992     20991     20994     20996
     20992     20991     20994     20997     20993     20991     20994     20995
     20993     20991     20994     20996     20993     20991     20994     20997
     20994     20997     21000     21001     20994     20997     21000     21002
     20994     20997     21000     21003     20995     20994     20997     20998
     20995     20994     20997     20999     20995     20994     20997     21000
     20996     20994     20997     20998     20996     20994     20997     20999
     20996     20994     20997     21000     20998     20997     21000     21001
     20998     20997     21000     21002     20998     20997     21000     21003
     20999     20997     21000     21001     20999     20997     21000     21002
     20999     20997     21000     21003     21004     21007     21010     21011
     21004     21007     21010     21012     21004     21007     21010     21013
     21005     21004     21007     21008     21005     21004     21007     21009
     21005     21004     21007     21010     21006     21004     21007     21008
     21006     21004     21007     21009     21006     21004     21007     21010
     21007     21010     21013     21014     21007     21010     21013     21015
     21007     21010     21013     21016     21008     21007     21010     21011
     21008     21007     21010     21012     21008     21007     21010     21013
     21009     21007     21010     21011     21009     21007     21010     21012
     21009     21007     21010     21013     21010     21013     21016     21017
     21010     21013     21016     21018     21010     21013     21016     21019
     21011     21010     21013     21014     21011     21010     21013     21015
     21011     21010     21013     21016     21012     21010     21013     21014
     21012     21010     21013     21015     21012     21010     21013     21016
     21013     21016     21019     21020     21013     21016     21019     21021
     21013     21016     21019     21022     21014     21013     21016     21017
     21014     21013     21016     21018     21014     21013     21016     21019
     21015     21013     21016     21017     21015     21013     21016     21018
     21015     21013     21016     21019     21016     21019     21022     21023
     21016     21019     21022     21024     21016     21019     21022     21025
     21017     21016     21019     21020     21017     21016     21019     21021
     21017     21016     21019     21022     21018     21016     21019     21020
     21018     21016     21019     21021     21018     21016     21019     21022
     21019     21022     21025     21026     21019     21022     21025     21027
     21019     21022     21025     21028     21020     21019     21022     21023
     21020     21019     21022     21024     21020     21019     21022     21025
     21021     21019     21022     21023     21021     21019     21022     21024
     21021     21019     21022     21025     21022     21025     21028     21029
     21022     21025     21028     21030     21022     21025     21028     21031
     21023     21022     21025     21026     21023     21022     21025     21027
     21023     21022     21025     21028     21024     21022     21025     21026
     21024     21022     21025     21027     21024     21022     21025     21028
     21025     21028     21031     21032     21025     21028     21031     21033
     21025     21028     21031     21034     21026     21025     21028     21029
     21026     21025     21028     21030     21026     21025     21028     21031
     21027     21025     21028     21029     21027     21025     21028     21030
     21027     21025     21028     21031     21028     21031     21034     21035
     21028     21031     21034     21036     21028     21031     21034     21037
     21029     21028     21031     21032     21029     21028     21031     21033
     21029     21028     21031     21034     21030     21028     21031     21032
     21030     21028     21031     21033     21030     21028     21031     21034
     21031     21034     21037     21038     21031     21034     21037     21039
     21031     21034     21037     21040     21032     21031     21034     21035
     21032     21031     21034     21036     21032     21031     21034     21037
     21033     21031     21034     21035     21033     21031     21034     21036
     21033     21031     21034     21037     21034     21037     21040     21041
     21034     21037     21040     21042     21034     21037     21040     21043
     21035     21034     21037     21038     21035     21034     21037     21039
     21035     21034     21037     21040     21036     21034     21037     21038
     21036     21034     21037     21039     21036     21034     21037     21040
     21037     21040     21043     21044     21037     21040     21043     21045
     21037     21040     21043     21046     21038     21037     21040     21041
     21038     21037     21040     21042     21038     21037     21040     21043
     21039     21037     21040     21041     21039     21037     21040     21042
     21039     21037     21040     21043     21040     21043     21046     21047
     21040     21043     21046     21048     21040     21043     21046     21049
     21041     21040     21043     21044     21041     21040     21043     21045
     21041     21040     21043     21046     21042     21040     21043     21044
     21042     21040     21043     21045     21042     21040     21043     21046
     21043     21046     21049     21050     21043     21046     21049     21051
     21043     21046     21049     21052     21044     21043     21046     21047
     21044     21043     21046     21048     21044     21043     21046     21049
     21045     21043     21046     21047     21045     21043     21046     21048
     21045     21043     21046     21049     21047     21046     21049     21050
     21047     21046     21049     21051     21047     21046     21049     21052
     21048     21046     21049     21050     21048     21046     21049     21051
     21048     21046     21049     21052     21053     21066     21069     21070
     21053     21066     21069     21071     21053     21066     21069     21076
     21054     21053     21058     21059     21054     21053     21058     21060
     21054     21053     21058     21061     21054     21053     21062     21063
     21054     21053     21062     21064     21054     21053     21062     21065
     21054     21053     21066     21067     21054     21053     21066     21068
     21054     21053     21066     21069     21055     21054     21053     21058
     21055     21054     21053     21062     21055     21054     21053     21066
     21056     21054     21053     21058     21056     21054     21053     21062
     21056     21054     21053     21066     21057     21054     21053     21058
     21057     21054     21053     21062     21057     21054     21053     21066
     21058     21053     21062     21063     21058     21053     21062     21064
     21058     21053     21062     21065     21058     21053     21066     21067
     21058     21053     21066     21068     21058     21053     21066     21069
     21059     21058     21053     21062     21059     21058     21053     21066
     21060     21058     21053     21062     21060     21058     21053     21066
     21061     21058     21053     21062     21061     21058     21053     21066
     21062     21053     21066     21067     21062     21053     21066     21068
     21062     21053     21066     21069     21063     21062     21053     21066
     21064     21062     21053     21066     21065     21062     21053     21066
     21066     21069     21076     21072     21067     21066     21069     21070
     21067     21066     21069     21071     21067     21066     21069     21076
     21068     21066     21069     21070     21068     21066     21069     21071
     21068     21066     21069     21076     21069     21076     21072     21073
     21069     21076     21072     21074     21069     21076     21072     21075
     21070     21069     21076     21072     21071     21069     21076     21072
     21072     21075     21077     21078     21072     21075     21077     21079
     21072     21075     21077     21082     21073     21072     21075     21077
     21074     21072     21075     21077     21075     21077     21082     21080
     21075     21077     21082     21083     21075     21077     21082     21084
     21076     21072     21075     21077     21077     21082     21080     21081
     21077     21082     21080     21132     21077     21082     21084     21085
     21077     21082     21084     21086     21077     21082     21084     21088
     21078     21077     21082     21080     21078     21077     21082     21083
     21078     21077     21082     21084     21079     21077     21082     21080
     21079     21077     21082     21083     21079     21077     21082     21084
     21080     21082     21084     21085     21080     21082     21084     21086
     21080     21082     21084     21088     21080     21132     21134     21135
     21080     21132     21134     21136     21080     21132     21134     21137
     21081     21080     21082     21083     21081     21080     21082     21084
     21081     21080     21132     21133     21081     21080     21132     21134
     21082     21080     21132     21133     21082     21080     21132     21134
     21082     21084     21086     21087     21082     21084     21088     21089
     21082     21084     21088     21090     21083     21082     21080     21132
     21083     21082     21084     21085     21083     21082     21084     21086
     21083     21082     21084     21088     21084     21082     21080     21132
     21084     21088     21090     21091     21084     21088     21090     21092
     21085     21084     21086     21087     21085     21084     21088     21089
     21085     21084     21088     21090     21086     21084     21088     21089
     21086     21084     21088     21090     21087     21086     21084     21088
     21088     21090     21092     21093     21088     21090     21092     21094
     21088     21090     21092     21095     21089     21088     21090     21091
     21089     21088     21090     21092     21090     21092     21095     21096
     21090     21092     21095     21097     21090     21092     21095     21098
     21091     21090     21092     21093     21091     21090     21092     21094
     21091     21090     21092     21095     21092     21095     21098     21099
     21092     21095     21098     21100     21092     21095     21098     21101
     21093     21092     21095     21096     21093     21092     21095     21097
     21093     21092     21095     21098     21094     21092     21095     21096
     21094     21092     21095     21097     21094     21092     21095     21098
     21095     21098     21101     21102     21095     21098     21101     21103
     21095     21098     21101     21104     21096     21095     21098     21099
     21096     21095     21098     21100     21096     21095     21098     21101
     21097     21095     21098     21099     21097     21095     21098     21100
     21097     21095     21098     21101     21098     21101     21104     21105
     21098     21101     21104     21106     21098     21101     21104     21107
     21099     21098     21101     21102     21099     21098     21101     21103
     21099     21098     21101     21104     21100     21098     21101     21102
     21100     21098     21101     21103     21100     21098     21101     21104
     21101     21104     21107     21108     21101     21104     21107     21109
     21101     21104     21107     21110     21102     21101     21104     21105
     21102     21101     21104     21106     21102     21101     21104     21107
     21103     21101     21104     21105     21103     21101     21104     21106
     21103     21101     21104     21107     21104     21107     21110     21111
     21104     21107     21110     21112     21104     21107     21110     21113
     21105     21104     21107     21108     21105     21104     21107     21109
     21105     21104     21107     21110     21106     21104     21107     21108
     21106     21104     21107     21109     21106     21104     21107     21110
     21107     21110     21113     21114     21107     21110     21113     21115
     21107     21110     21113     21116     21108     21107     21110     21111
     21108     21107     21110     21112     21108     21107     21110     21113
     21109     21107     21110     21111     21109     21107     21110     21112
     21109     21107     21110     21113     21110     21113     21116     21117
     21110     21113     21116     21118     21110     21113     21116     21119
     21111     21110     21113     21114     21111     21110     21113     21115
     21111     21110     21113     21116     21112     21110     21113     21114
     21112     21110     21113     21115     21112     21110     21113     21116
     21113     21116     21119     21120     21113     21116     21119     21121
     21113     21116     21119     21122     21114     21113     21116     21117
     21114     21113     21116     21118     21114     21113     21116     21119
     21115     21113     21116     21117     21115     21113     21116     21118
     21115     21113     21116     21119     21116     21119     21122     21123
     21116     21119     21122     21124     21116     21119     21122     21125
     21117     21116     21119     21120     21117     21116     21119     21121
     21117     21116     21119     21122     21118     21116     21119     21120
     21118     21116     21119     21121     21118     21116     21119     21122
     21119     21122     21125     21126     21119     21122     21125     21127
     21119     21122     21125     21128     21120     21119     21122     21123
     21120     21119     21122     21124     21120     21119     21122     21125
     21121     21119     21122     21123     21121     21119     21122     21124
     21121     21119     21122     21125     21122     21125     21128     21129
     21122     21125     21128     21130     21122     21125     21128     21131
     21123     21122     21125     21126     21123     21122     21125     21127
     21123     21122     21125     21128     21124     21122     21125     21126
     21124     21122     21125     21127     21124     21122     21125     21128
     21126     21125     21128     21129     21126     21125     21128     21130
     21126     21125     21128     21131     21127     21125     21128     21129
     21127     21125     21128     21130     21127     21125     21128     21131
     21132     21134     21137     21138     21132     21134     21137     21139
     21132     21134     21137     21140     21133     21132     21134     21135
     21133     21132     21134     21136     21133     21132     21134     21137
     21134     21137     21140     21141     21134     21137     21140     21142
     21134     21137     21140     21143     21135     21134     21137     21138
     21135     21134     21137     21139     21135     21134     21137     21140
     21136     21134     21137     21138     21136     21134     21137     21139
     21136     21134     21137     21140     21137     21140     21143     21144
     21137     21140     21143     21145     21137     21140     21143     21146
     21138     21137     21140     21141     21138     21137     21140     21142
     21138     21137     21140     21143     21139     21137     21140     21141
     21139     21137     21140     21142     21139     21137     21140     21143
     21140     21143     21146     21147     21140     21143     21146     21148
     21140     21143     21146     21149     21141     21140     21143     21144
     21141     21140     21143     21145     21141     21140     21143     21146
     21142     21140     21143     21144     21142     21140     21143     21145
     21142     21140     21143     21146     21143     21146     21149     21150
     21143     21146     21149     21151     21143     21146     21149     21152
     21144     21143     21146     21147     21144     21143     21146     21148
     21144     21143     21146     21149     21145     21143     21146     21147
     21145     21143     21146     21148     21145     21143     21146     21149
     21146     21149     21152     21153     21146     21149     21152     21154
     21146     21149     21152     21155     21147     21146     21149     21150
     21147     21146     21149     21151     21147     21146     21149     21152
     21148     21146     21149     21150     21148     21146     21149     21151
     21148     21146     21149     21152     21149     21152     21155     21156
     21149     21152     21155     21157     21150     21149     21152     21153
     21150     21149     21152     21154     21150     21149     21152     21155
     21151     21149     21152     21153     21151     21149     21152     21154
     21151     21149     21152     21155     21152     21155     21157     21158
     21152     21155     21157     21159     21153     21152     21155     21156
     21153     21152     21155     21157     21154     21152     21155     21156
     21154     21152     21155     21157     21155     21157     21159     21160
     21155     21157     21159     21161     21155     21157     21159     21162
     21156     21155     21157     21158     21156     21155     21157     21159
     21157     21159     21162     21163     21157     21159     21162     21164
     21157     21159     21162     21165     21158     21157     21159     21160
     21158     21157     21159     21161     21158     21157     21159     21162
     21159     21162     21165     21166     21159     21162     21165     21167
     21159     21162     21165     21168     21160     21159     21162     21163
     21160     21159     21162     21164     21160     21159     21162     21165
     21161     21159     21162     21163     21161     21159     21162     21164
     21161     21159     21162     21165     21162     21165     21168     21169
     21162     21165     21168     21170     21162     21165     21168     21171
     21163     21162     21165     21166     21163     21162     21165     21167
     21163     21162     21165     21168     21164     21162     21165     21166
     21164     21162     21165     21167     21164     21162     21165     21168
     21165     21168     21171     21172     21165     21168     21171     21173
     21165     21168     21171     21174     21166     21165     21168     21169
     21166     21165     21168     21170     21166     21165     21168     21171
     21167     21165     21168     21169     21167     21165     21168     21170
     21167     21165     21168     21171     21168     21171     21174     21175
     21168     21171     21174     21176     21168     21171     21174     21177
     21169     21168     21171     21172     21169     21168     21171     21173
     21169     21168     21171     21174     21170     21168     21171     21172
     21170     21168     21171     21173     21170     21168     21171     21174
     21171     21174     21177     21178     21171     21174     21177     21179
     21171     21174     21177     21180     21172     21171     21174     21175
     21172     21171     21174     21176     21172     21171     21174     21177
     21173     21171     21174     21175     21173     21171     21174     21176
     21173     21171     21174     21177     21174     21177     21180     21181
     21174     21177     21180     21182     21174     21177     21180     21183
     21175     21174     21177     21178     21175     21174     21177     21179
     21175     21174     21177     21180     21176     21174     21177     21178
     21176     21174     21177     21179     21176     21174     21177     21180
     21178     21177     21180     21181     21178     21177     21180     21182
     21178     21177     21180     21183     21179     21177     21180     21181
     21179     21177     21180     21182     21179     21177     21180     21183
     21184     21188     21191     21192     21184     21188     21191     21222
     21184     21230     21227     21222     21184     21230     21227     21228
     21184     21230     21227     21229     21185     21184     21186     21187
     21185     21184     21188     21189     21185     21184     21188     21190
     21185     21184     21188     21191     21185     21184     21230     21227
     21185     21184     21230     21231     21185     21184     21230     21232
     21186     21184     21188     21189     21186     21184     21188     21190
     21186     21184     21188     21191     21186     21184     21230     21227
     21186     21184     21230     21231     21186     21184     21230     21232
     21187     21186     21184     21188     21187     21186     21184     21230
     21188     21184     21230     21227     21188     21184     21230     21231
     21188     21184     21230     21232     21188     21191     21192     21193
     21188     21191     21192     21194     21188     21191     21222     21220
     21188     21191     21222     21223     21188     21191     21222     21227
     21189     21188     21184     21230     21189     21188     21191     21192
     21189     21188     21191     21222     21190     21188     21184     21230
     21190     21188     21191     21192     21190     21188     21191     21222
     21191     21188     21184     21230     21191     21192     21194     21195
     21191     21192     21194     21196     21191     21192     21194     21197
     21191     21222     21220     21197     21191     21222     21220     21217
     21191     21222     21220     21221     21191     21222     21223     21224
     21191     21222     21223     21225     21191     21222     21223     21226
     21191     21222     21227     21228     21191     21222     21227     21229
     21191     21222     21227     21230     21192     21191     21222     21220
     21192     21191     21222     21223     21192     21191     21222     21227
     21192     21194     21197     21198     21192     21194     21197     21199
     21192     21194     21197     21220     21193     21192     21191     21222
     21193     21192     21194     21195     21193     21192     21194     21196
     21193     21192     21194     21197     21194     21192     21191     21222
     21194     21197     21199     21200     21194     21197     21199     21201
     21194     21197     21199     21209     21194     21197     21220     21217
     21194     21197     21220     21221     21194     21197     21220     21222
     21195     21194     21197     21198     21195     21194     21197     21199
     21195     21194     21197     21220     21196     21194     21197     21198
     21196     21194     21197     21199     21196     21194     21197     21220
     21197     21199     21201     21202     21197     21199     21201     21203
     21197     21199     21201     21204     21197     21199     21209     21207
     21197     21199     21209     21210     21197     21199     21209     21214
     21197     21220     21217     21214     21197     21220     21217     21218
     21197     21220     21217     21219     21197     21220     21222     21223
     21197     21220     21222     21227     21198     21197     21199     21200
     21198     21197     21199     21201     21198     21197     21199     21209
     21198     21197     21220     21217     21198     21197     21220     21221
     21198     21197     21220     21222     21199     21197     21220     21217
     21199     21197     21220     21221     21199     21197     21220     21222
     21199     21201     21204     21205     21199     21201     21204     21206
     21199     21201     21204     21207     21199     21209     21207     21204
     21199     21209     21207     21208     21199     21209     21207     21233
     21199     21209     21210     21211     21199     21209     21210     21212
     21199     21209     21210     21213     21199     21209     21214     21215
     21199     21209     21214     21216     21199     21209     21214     21217
     21200     21199     21197     21220     21200     21199     21201     21202
     21200     21199     21201     21203     21200     21199     21201     21204
     21200     21199     21209     21207     21200     21199     21209     21210
     21200     21199     21209     21214     21201     21199     21197     21220
     21201     21199     21209     21207     21201     21199     21209     21210
     21201     21199     21209     21214     21201     21204     21207     21208
     21201     21204     21207     21209     21201     21204     21207     21233
     21202     21201     21199     21209     21202     21201     21204     21205
     21202     21201     21204     21206     21202     21201     21204     21207
     21203     21201     21199     21209     21203     21201     21204     21205
     21203     21201     21204     21206     21203     21201     21204     21207
     21204     21201     21199     21209     21204     21207     21209     21210
     21204     21207     21209     21214     21204     21207     21233     21234
     21204     21207     21233     21235     21204     21207     21233     21239
     21205     21204     21207     21208     21205     21204     21207     21209
     21205     21204     21207     21233     21206     21204     21207     21208
     21206     21204     21207     21209     21206     21204     21207     21233
     21207     21209     21210     21211     21207     21209     21210     21212
     21207     21209     21210     21213     21207     21209     21214     21215
     21207     21209     21214     21216     21207     21209     21214     21217
     21207     21233     21235     21236     21207     21233     21235     21237
     21207     21233     21235     21238     21207     21233     21239     21240
     21207     21233     21239     21241     21207     21233     21239     21242
     21208     21207     21209     21210     21208     21207     21209     21214
     21208     21207     21233     21234     21208     21207     21233     21235
     21208     21207     21233     21239     21209     21199     21197     21220
     21209     21207     21233     21234     21209     21207     21233     21235
     21209     21207     21233     21239     21209     21214     21217     21218
     21209     21214     21217     21219     21209     21214     21217     21220
     21210     21209     21207     21233     21210     21209     21214     21215
     21210     21209     21214     21216     21210     21209     21214     21217
     21211     21210     21209     21214     21212     21210     21209     21214
     21213     21210     21209     21214     21214     21209     21207     21233
     21214     21217     21220     21221     21214     21217     21220     21222
     21215     21214     21217     21218     21215     21214     21217     21219
     21215     21214     21217     21220     21216     21214     21217     21218
     21216     21214     21217     21219     21216     21214     21217     21220
     21217     21220     21222     21223     21217     21220     21222     21227
     21218     21217     21220     21221     21218     21217     21220     21222
     21219     21217     21220     21221     21219     21217     21220     21222
     21220     21222     21223     21224     21220     21222     21223     21225
     21220     21222     21223     21226     21220     21222     21227     21228
     21220     21222     21227     21229     21220     21222     21227     21230
     21221     21220     21222     21223     21221     21220     21222     21227
     21222     21227     21230     21231     21222     21227     21230     21232
     21223     21222     21227     21228     21223     21222     21227     21229
     21223     21222     21227     21230     21224     21223     21222     21227
     21225     21223     21222     21227     21226     21223     21222     21227
     21228     21227     21230     21231     21228     21227     21230     21232
     21229     21227     21230     21231     21229     21227     21230     21232
     21233     21239     21242     21243     21233     21239     21242     21244
     21233     21239     21242     21245     21234     21233     21235     21236
     21234     21233     21235     21237     21234     21233     21235     21238
     21234     21233     21239     21240     21234     21233     21239     21241
     21234     21233     21239     21242     21235     21233     21239     21240
     21235     21233     21239     21241     21235     21233     21239     21242
     21236     21235     21233     21239     21237     21235     21233     21239
     21238     21235     21233     21239     21239     21242     21245     21246
     21239     21242     21245     21247     21239     21242     21245     21248
     21240     21239     21242     21243     21240     21239     21242     21244
     21240     21239     21242     21245     21241     21239     21242     21243
     21241     21239     21242     21244     21241     21239     21242     21245
     21242     21245     21248     21249     21242     21245     21248     21250
     21242     21245     21248     21254     21243     21242     21245     21246
     21243     21242     21245     21247     21243     21242     21245     21248
     21244     21242     21245     21246     21244     21242     21245     21247
     21244     21242     21245     21248     21245     21248     21250     21251
     21245     21248     21250     21252     21245     21248     21250     21253
     21245     21248     21254     21255     21245     21248     21254     21256
     21245     21248     21254     21257     21246     21245     21248     21249
     21246     21245     21248     21250     21246     21245     21248     21254
     21247     21245     21248     21249     21247     21245     21248     21250
     21247     21245     21248     21254     21249     21248     21250     21251
     21249     21248     21250     21252     21249     21248     21250     21253
     21249     21248     21254     21255     21249     21248     21254     21256
     21249     21248     21254     21257     21250     21248     21254     21255
     21250     21248     21254     21256     21250     21248     21254     21257
     21251     21250     21248     21254     21252     21250     21248     21254
     21253     21250     21248     21254     21258     21262     21264     21265
     21258     21262     21264     21266     21258     21262     21267     21268
     21258     21262     21267     21269     21258     21262     21267     21273
     21259     21258     21262     21263     21259     21258     21262     21264
     21259     21258     21262     21267     21260     21258     21262     21263
     21260     21258     21262     21264     21260     21258     21262     21267
     21261     21258     21262     21263     21261     21258     21262     21264
     21261     21258     21262     21267     21262     21267     21273     21270
     21263     21262     21264     21265     21263     21262     21264     21266
     21263     21262     21267     21268     21263     21262     21267     21269
     21263     21262     21267     21273     21264     21262     21267     21268
     21264     21262     21267     21269     21264     21262     21267     21273
     21265     21264     21262     21267     21266     21264     21262     21267
     21267     21273     21270     21271     21267     21273     21270     21272
     21267     21273     21270     21274     21268     21267     21273     21270
     21269     21267     21273     21270     21270     21274     21275     21276
     21270     21274     21275     21277     21270     21274     21275     21278
     21271     21270     21274     21275     21272     21270     21274     21275
     21273     21270     21274     21275     21274     21275     21278     21279
     21274     21275     21278     21280     21274     21275     21278     21286
     21275     21278     21280     21281     21275     21278     21286     21287
     21275     21278     21286     21288     21275     21278     21286     21289
     21276     21275     21278     21279     21276     21275     21278     21280
     21276     21275     21278     21286     21277     21275     21278     21279
     21277     21275     21278     21280     21277     21275     21278     21286
     21278     21280     21281     21282     21278     21280     21281     21283
     21278     21286     21289     21290     21279     21278     21280     21281
     21279     21278     21286     21287     21279     21278     21286     21288
     21279     21278     21286     21289     21280     21278     21286     21287
     21280     21278     21286     21288     21280     21278     21286     21289
     21280     21281     21283     21284     21280     21281     21283     21285
     21280     21281     21283     21295     21281     21280     21278     21286
     21281     21283     21295     21296     21281     21283     21295     21297
     21281     21283     21295     21298     21282     21281     21283     21284
     21282     21281     21283     21285     21282     21281     21283     21295
     21283     21295     21298     21299     21283     21295     21298     21300
     21283     21295     21298     21301     21284     21283     21295     21296
     21284     21283     21295     21297     21284     21283     21295     21298
     21285     21283     21295     21296     21285     21283     21295     21297
     21285     21283     21295     21298     21286     21289     21290     21291
     21286     21289     21290     21292     21287     21286     21289     21290
     21288     21286     21289     21290     21289     21290     21292     21293
     21289     21290     21292     21294     21289     21290     21292     21342
     21290     21292     21342     21343     21290     21292     21342     21344
     21290     21292     21342     21345     21291     21290     21292     21293
     21291     21290     21292     21294     21291     21290     21292     21342
     21292     21342     21345     21346     21292     21342     21345     21347
     21292     21342     21345     21348     21293     21292     21342     21343
     21293     21292     21342     21344     21293     21292     21342     21345
     21294     21292     21342     21343     21294     21292     21342     21344
     21294     21292     21342     21345     21295     21298     21301     21302
     21295     21298     21301     21303     21296     21295     21298     21299
     21296     21295     21298     21300     21296     21295     21298     21301
     21297     21295     21298     21299     21297     21295     21298     21300
     21297     21295     21298     21301     21298     21301     21303     21304
     21298     21301     21303     21305     21299     21298     21301     21302
     21299     21298     21301     21303     21300     21298     21301     21302
     21300     21298     21301     21303     21301     21303     21305     21306
     21301     21303     21305     21307     21301     21303     21305     21308
     21302     21301     21303     21304     21302     21301     21303     21305
     21303     21305     21308     21309     21303     21305     21308     21310
     21304     21303     21305     21306     21304     21303     21305     21307
     21304     21303     21305     21308     21305     21308     21310     21311
     21305     21308     21310     21312     21306     21305     21308     21309
     21306     21305     21308     21310     21307     21305     21308     21309
     21307     21305     21308     21310     21308     21310     21312     21313
     21308     21310     21312     21314     21308     21310     21312     21315
     21309     21308     21310     21311     21309     21308     21310     21312
     21310     21312     21315     21316     21310     21312     21315     21317
     21311     21310     21312     21313     21311     21310     21312     21314
     21311     21310     21312     21315     21312     21315     21317     21318
     21312     21315     21317     21319     21313     21312     21315     21316
     21313     21312     21315     21317     21314     21312     21315     21316
     21314     21312     21315     21317     21315     21317     21319     21320
     21315     21317     21319     21321     21315     21317     21319     21322
     21316     21315     21317     21318     21316     21315     21317     21319
     21317     21319     21322     21323     21317     21319     21322     21324
     21318     21317     21319     21320     21318     21317     21319     21321
     21318     21317     21319     21322     21319     21322     21324     21325
     21319     21322     21324     21326     21320     21319     21322     21323
     21320     21319     21322     21324     21321     21319     21322     21323
     21321     21319     21322     21324     21322     21324     21326     21327
     21322     21324     21326     21328     21322     21324     21326     21329
     21323     21322     21324     21325     21323     21322     21324     21326
     21324     21326     21329     21330     21324     21326     21329     21331
     21324     21326     21329     21332     21325     21324     21326     21327
     21325     21324     21326     21328     21325     21324     21326     21329
     21326     21329     21332     21333     21326     21329     21332     21334
     21326     21329     21332     21335     21327     21326     21329     21330
     21327     21326     21329     21331     21327     21326     21329     21332
     21328     21326     21329     21330     21328     21326     21329     21331
     21328     21326     21329     21332     21329     21332     21335     21336
     21329     21332     21335     21337     21329     21332     21335     21338
     21330     21329     21332     21333     21330     21329     21332     21334
     21330     21329     21332     21335     21331     21329     21332     21333
     21331     21329     21332     21334     21331     21329     21332     21335
     21332     21335     21338     21339     21332     21335     21338     21340
     21332     21335     21338     21341     21333     21332     21335     21336
     21333     21332     21335     21337     21333     21332     21335     21338
     21334     21332     21335     21336     21334     21332     21335     21337
     21334     21332     21335     21338     21336     21335     21338     21339
     21336     21335     21338     21340     21336     21335     21338     21341
     21337     21335     21338     21339     21337     21335     21338     21340
     21337     21335     21338     21341     21342     21345     21348     21349
     21342     21345     21348     21350     21342     21345     21348     21351
     21343     21342     21345     21346     21343     21342     21345     21347
     21343     21342     21345     21348     21344     21342     21345     21346
     21344     21342     21345     21347     21344     21342     21345     21348
     21345     21348     21351     21352     21345     21348     21351     21353
     21345     21348     21351     21354     21346     21345     21348     21349
     21346     21345     21348     21350     21346     21345     21348     21351
     21347     21345     21348     21349     21347     21345     21348     21350
     21347     21345     21348     21351     21348     21351     21354     21355
     21348     21351     21354     21356     21348     21351     21354     21357
     21349     21348     21351     21352     21349     21348     21351     21353
     21349     21348     21351     21354     21350     21348     21351     21352
     21350     21348     21351     21353     21350     21348     21351     21354
     21351     21354     21357     21358     21351     21354     21357     21359
     21351     21354     21357     21360     21352     21351     21354     21355
     21352     21351     21354     21356     21352     21351     21354     21357
     21353     21351     21354     21355     21353     21351     21354     21356
     21353     21351     21354     21357     21354     21357     21360     21361
     21354     21357     21360     21362     21354     21357     21360     21363
     21355     21354     21357     21358     21355     21354     21357     21359
     21355     21354     21357     21360     21356     21354     21357     21358
     21356     21354     21357     21359     21356     21354     21357     21360
     21357     21360     21363     21364     21357     21360     21363     21365
     21357     21360     21363     21366     21358     21357     21360     21361
     21358     21357     21360     21362     21358     21357     21360     21363
     21359     21357     21360     21361     21359     21357     21360     21362
     21359     21357     21360     21363     21360     21363     21366     21367
     21360     21363     21366     21368     21360     21363     21366     21369
     21361     21360     21363     21364     21361     21360     21363     21365
     21361     21360     21363     21366     21362     21360     21363     21364
     21362     21360     21363     21365     21362     21360     21363     21366
     21363     21366     21369     21370     21363     21366     21369     21371
     21363     21366     21369     21372     21364     21363     21366     21367
     21364     21363     21366     21368     21364     21363     21366     21369
     21365     21363     21366     21367     21365     21363     21366     21368
     21365     21363     21366     21369     21366     21369     21372     21373
     21366     21369     21372     21374     21366     21369     21372     21375
     21367     21366     21369     21370     21367     21366     21369     21371
     21367     21366     21369     21372     21368     21366     21369     21370
     21368     21366     21369     21371     21368     21366     21369     21372
     21369     21372     21375     21376     21369     21372     21375     21377
     21369     21372     21375     21378     21370     21369     21372     21373
     21370     21369     21372     21374     21370     21369     21372     21375
     21371     21369     21372     21373     21371     21369     21372     21374
     21371     21369     21372     21375     21372     21375     21378     21379
     21372     21375     21378     21380     21372     21375     21378     21381
     21373     21372     21375     21376     21373     21372     21375     21377
     21373     21372     21375     21378     21374     21372     21375     21376
     21374     21372     21375     21377     21374     21372     21375     21378
     21375     21378     21381     21382     21375     21378     21381     21383
     21375     21378     21381     21384     21376     21375     21378     21379
     21376     21375     21378     21380     21376     21375     21378     21381
     21377     21375     21378     21379     21377     21375     21378     21380
     21377     21375     21378     21381     21378     21381     21384     21385
     21378     21381     21384     21386     21378     21381     21384     21387
     21379     21378     21381     21382     21379     21378     21381     21383
     21379     21378     21381     21384     21380     21378     21381     21382
     21380     21378     21381     21383     21380     21378     21381     21384
     21381     21384     21387     21388     21381     21384     21387     21389
     21381     21384     21387     21390     21382     21381     21384     21385
     21382     21381     21384     21386     21382     21381     21384     21387
     21383     21381     21384     21385     21383     21381     21384     21386
     21383     21381     21384     21387     21385     21384     21387     21388
     21385     21384     21387     21389     21385     21384     21387     21390
     21386     21384     21387     21388     21386     21384     21387     21389
     21386     21384     21387     21390     21391     21395     21397     21398
     21391     21395     21397     21399     21391     21395     21400     21401
     21391     21395     21400     21402     21391     21395     21400     21406
     21392     21391     21395     21396     21392     21391     21395     21397
     21392     21391     21395     21400     21393     21391     21395     21396
     21393     21391     21395     21397     21393     21391     21395     21400
     21394     21391     21395     21396     21394     21391     21395     21397
     21394     21391     21395     21400     21395     21400     21406     21403
     21396     21395     21397     21398     21396     21395     21397     21399
     21396     21395     21400     21401     21396     21395     21400     21402
     21396     21395     21400     21406     21397     21395     21400     21401
     21397     21395     21400     21402     21397     21395     21400     21406
     21398     21397     21395     21400     21399     21397     21395     21400
     21400     21406     21403     21404     21400     21406     21403     21405
     21400     21406     21403     21407     21401     21400     21406     21403
     21402     21400     21406     21403     21403     21407     21408     21409
     21403     21407     21408     21410     21403     21407     21408     21411
     21404     21403     21407     21408     21405     21403     21407     21408
     21406     21403     21407     21408     21407     21408     21411     21412
     21407     21408     21411     21413     21407     21408     21411     21419
     21408     21411     21413     21414     21408     21411     21419     21420
     21408     21411     21419     21421     21408     21411     21419     21422
     21409     21408     21411     21412     21409     21408     21411     21413
     21409     21408     21411     21419     21410     21408     21411     21412
     21410     21408     21411     21413     21410     21408     21411     21419
     21411     21413     21414     21415     21411     21413     21414     21416
     21411     21419     21422     21423     21412     21411     21413     21414
     21412     21411     21419     21420     21412     21411     21419     21421
     21412     21411     21419     21422     21413     21411     21419     21420
     21413     21411     21419     21421     21413     21411     21419     21422
     21413     21414     21416     21417     21413     21414     21416     21418
     21413     21414     21416     21428     21414     21413     21411     21419
     21414     21416     21428     21429     21414     21416     21428     21430
     21414     21416     21428     21431     21415     21414     21416     21417
     21415     21414     21416     21418     21415     21414     21416     21428
     21416     21428     21431     21432     21416     21428     21431     21433
     21416     21428     21431     21434     21417     21416     21428     21429
     21417     21416     21428     21430     21417     21416     21428     21431
     21418     21416     21428     21429     21418     21416     21428     21430
     21418     21416     21428     21431     21419     21422     21423     21424
     21419     21422     21423     21425     21420     21419     21422     21423
     21421     21419     21422     21423     21422     21423     21425     21426
     21422     21423     21425     21427     21422     21423     21425     21475
     21423     21425     21475     21476     21423     21425     21475     21477
     21423     21425     21475     21478     21424     21423     21425     21426
     21424     21423     21425     21427     21424     21423     21425     21475
     21425     21475     21478     21479     21425     21475     21478     21480
     21425     21475     21478     21481     21426     21425     21475     21476
     21426     21425     21475     21477     21426     21425     21475     21478
     21427     21425     21475     21476     21427     21425     21475     21477
     21427     21425     21475     21478     21428     21431     21434     21435
     21428     21431     21434     21436     21429     21428     21431     21432
     21429     21428     21431     21433     21429     21428     21431     21434
     21430     21428     21431     21432     21430     21428     21431     21433
     21430     21428     21431     21434     21431     21434     21436     21437
     21431     21434     21436     21438     21432     21431     21434     21435
     21432     21431     21434     21436     21433     21431     21434     21435
     21433     21431     21434     21436     21434     21436     21438     21439
     21434     21436     21438     21440     21434     21436     21438     21441
     21435     21434     21436     21437     21435     21434     21436     21438
     21436     21438     21441     21442     21436     21438     21441     21443
     21437     21436     21438     21439     21437     21436     21438     21440
     21437     21436     21438     21441     21438     21441     21443     21444
     21438     21441     21443     21445     21439     21438     21441     21442
     21439     21438     21441     21443     21440     21438     21441     21442
     21440     21438     21441     21443     21441     21443     21445     21446
     21441     21443     21445     21447     21441     21443     21445     21448
     21442     21441     21443     21444     21442     21441     21443     21445
     21443     21445     21448     21449     21443     21445     21448     21450
     21444     21443     21445     21446     21444     21443     21445     21447
     21444     21443     21445     21448     21445     21448     21450     21451
     21445     21448     21450     21452     21446     21445     21448     21449
     21446     21445     21448     21450     21447     21445     21448     21449
     21447     21445     21448     21450     21448     21450     21452     21453
     21448     21450     21452     21454     21448     21450     21452     21455
     21449     21448     21450     21451     21449     21448     21450     21452
     21450     21452     21455     21456     21450     21452     21455     21457
     21451     21450     21452     21453     21451     21450     21452     21454
     21451     21450     21452     21455     21452     21455     21457     21458
     21452     21455     21457     21459     21453     21452     21455     21456
     21453     21452     21455     21457     21454     21452     21455     21456
     21454     21452     21455     21457     21455     21457     21459     21460
     21455     21457     21459     21461     21455     21457     21459     21462
     21456     21455     21457     21458     21456     21455     21457     21459
     21457     21459     21462     21463     21457     21459     21462     21464
     21457     21459     21462     21465     21458     21457     21459     21460
     21458     21457     21459     21461     21458     21457     21459     21462
     21459     21462     21465     21466     21459     21462     21465     21467
     21459     21462     21465     21468     21460     21459     21462     21463
     21460     21459     21462     21464     21460     21459     21462     21465
     21461     21459     21462     21463     21461     21459     21462     21464
     21461     21459     21462     21465     21462     21465     21468     21469
     21462     21465     21468     21470     21462     21465     21468     21471
     21463     21462     21465     21466     21463     21462     21465     21467
     21463     21462     21465     21468     21464     21462     21465     21466
     21464     21462     21465     21467     21464     21462     21465     21468
     21465     21468     21471     21472     21465     21468     21471     21473
     21465     21468     21471     21474     21466     21465     21468     21469
     21466     21465     21468     21470     21466     21465     21468     21471
     21467     21465     21468     21469     21467     21465     21468     21470
     21467     21465     21468     21471     21469     21468     21471     21472
     21469     21468     21471     21473     21469     21468     21471     21474
     21470     21468     21471     21472     21470     21468     21471     21473
     21470     21468     21471     21474     21475     21478     21481     21482
     21475     21478     21481     21483     21475     21478     21481     21484
     21476     21475     21478     21479     21476     21475     21478     21480
     21476     21475     21478     21481     21477     21475     21478     21479
     21477     21475     21478     21480     21477     21475     21478     21481
     21478     21481     21484     21485     21478     21481     21484     21486
     21478     21481     21484     21487     21479     21478     21481     21482
     21479     21478     21481     21483     21479     21478     21481     21484
     21480     21478     21481     21482     21480     21478     21481     21483
     21480     21478     21481     21484     21481     21484     21487     21488
     21481     21484     21487     21489     21481     21484     21487     21490
     21482     21481     21484     21485     21482     21481     21484     21486
     21482     21481     21484     21487     21483     21481     21484     21485
     21483     21481     21484     21486     21483     21481     21484     21487
     21484     21487     21490     21491     21484     21487     21490     21492
     21484     21487     21490     21493     21485     21484     21487     21488
     21485     21484     21487     21489     21485     21484     21487     21490
     21486     21484     21487     21488     21486     21484     21487     21489
     21486     21484     21487     21490     21487     21490     21493     21494
     21487     21490     21493     21495     21487     21490     21493     21496
     21488     21487     21490     21491     21488     21487     21490     21492
     21488     21487     21490     21493     21489     21487     21490     21491
     21489     21487     21490     21492     21489     21487     21490     21493
     21490     21493     21496     21497     21490     21493     21496     21498
     21490     21493     21496     21499     21491     21490     21493     21494
     21491     21490     21493     21495     21491     21490     21493     21496
     21492     21490     21493     21494     21492     21490     21493     21495
     21492     21490     21493     21496     21493     21496     21499     21500
     21493     21496     21499     21501     21493     21496     21499     21502
     21494     21493     21496     21497     21494     21493     21496     21498
     21494     21493     21496     21499     21495     21493     21496     21497
     21495     21493     21496     21498     21495     21493     21496     21499
     21496     21499     21502     21503     21496     21499     21502     21504
     21496     21499     21502     21505     21497     21496     21499     21500
     21497     21496     21499     21501     21497     21496     21499     21502
     21498     21496     21499     21500     21498     21496     21499     21501
     21498     21496     21499     21502     21499     21502     21505     21506
     21499     21502     21505     21507     21499     21502     21505     21508
     21500     21499     21502     21503     21500     21499     21502     21504
     21500     21499     21502     21505     21501     21499     21502     21503
     21501     21499     21502     21504     21501     21499     21502     21505
     21502     21505     21508     21509     21502     21505     21508     21510
     21502     21505     21508     21511     21503     21502     21505     21506
     21503     21502     21505     21507     21503     21502     21505     21508
     21504     21502     21505     21506     21504     21502     21505     21507
     21504     21502     21505     21508     21505     21508     21511     21512
     21505     21508     21511     21513     21505     21508     21511     21514
     21506     21505     21508     21509     21506     21505     21508     21510
     21506     21505     21508     21511     21507     21505     21508     21509
     21507     21505     21508     21510     21507     21505     21508     21511
     21508     21511     21514     21515     21508     21511     21514     21516
     21508     21511     21514     21517     21509     21508     21511     21512
     21509     21508     21511     21513     21509     21508     21511     21514
     21510     21508     21511     21512     21510     21508     21511     21513
     21510     21508     21511     21514     21511     21514     21517     21518
     21511     21514     21517     21519     21511     21514     21517     21520
     21512     21511     21514     21515     21512     21511     21514     21516
     21512     21511     21514     21517     21513     21511     21514     21515
     21513     21511     21514     21516     21513     21511     21514     21517
     21514     21517     21520     21521     21514     21517     21520     21522
     21514     21517     21520     21523     21515     21514     21517     21518
     21515     21514     21517     21519     21515     21514     21517     21520
     21516     21514     21517     21518     21516     21514     21517     21519
     21516     21514     21517     21520     21518     21517     21520     21521
     21518     21517     21520     21522     21518     21517     21520     21523
     21519     21517     21520     21521     21519     21517     21520     21522
     21519     21517     21520     21523     21524     21528     21531     21532
     21524     21528     21531     21533     21524     21528     21531     21537
     21525     21524     21528     21529     21525     21524     21528     21530
     21525     21524     21528     21531     21526     21524     21528     21529
     21526     21524     21528     21530     21526     21524     21528     21531
     21527     21524     21528     21529     21527     21524     21528     21530
     21527     21524     21528     21531     21528     21531     21537     21534
     21529     21528     21531     21532     21529     21528     21531     21533
     21529     21528     21531     21537     21530     21528     21531     21532
     21530     21528     21531     21533     21530     21528     21531     21537
     21531     21537     21534     21535     21531     21537     21534     21536
     21531     21537     21534     21538     21532     21531     21537     21534
     21533     21531     21537     21534     21534     21538     21539     21540
     21534     21538     21539     21541     21534     21538     21539     21542
     21535     21534     21538     21539     21536     21534     21538     21539
     21537     21534     21538     21539     21538     21539     21542     21543
     21538     21539     21542     21544     21538     21539     21542     21550
     21539     21542     21544     21545     21539     21542     21550     21551
     21539     21542     21550     21552     21539     21542     21550     21553
     21540     21539     21542     21543     21540     21539     21542     21544
     21540     21539     21542     21550     21541     21539     21542     21543
     21541     21539     21542     21544     21541     21539     21542     21550
     21542     21544     21545     21546     21542     21544     21545     21547
     21542     21550     21553     21554     21543     21542     21544     21545
     21543     21542     21550     21551     21543     21542     21550     21552
     21543     21542     21550     21553     21544     21542     21550     21551
     21544     21542     21550     21552     21544     21542     21550     21553
     21544     21545     21547     21548     21544     21545     21547     21549
     21544     21545     21547     21559     21545     21544     21542     21550
     21545     21547     21559     21560     21545     21547     21559     21561
     21545     21547     21559     21562     21546     21545     21547     21548
     21546     21545     21547     21549     21546     21545     21547     21559
     21547     21559     21562     21563     21547     21559     21562     21564
     21547     21559     21562     21565     21548     21547     21559     21560
     21548     21547     21559     21561     21548     21547     21559     21562
     21549     21547     21559     21560     21549     21547     21559     21561
     21549     21547     21559     21562     21550     21553     21554     21555
     21550     21553     21554     21556     21551     21550     21553     21554
     21552     21550     21553     21554     21553     21554     21556     21557
     21553     21554     21556     21558     21553     21554     21556     21606
     21554     21556     21606     21607     21554     21556     21606     21608
     21554     21556     21606     21609     21555     21554     21556     21557
     21555     21554     21556     21558     21555     21554     21556     21606
     21556     21606     21609     21610     21556     21606     21609     21611
     21556     21606     21609     21612     21557     21556     21606     21607
     21557     21556     21606     21608     21557     21556     21606     21609
     21558     21556     21606     21607     21558     21556     21606     21608
     21558     21556     21606     21609     21559     21562     21565     21566
     21559     21562     21565     21567     21560     21559     21562     21563
     21560     21559     21562     21564     21560     21559     21562     21565
     21561     21559     21562     21563     21561     21559     21562     21564
     21561     21559     21562     21565     21562     21565     21567     21568
     21562     21565     21567     21569     21563     21562     21565     21566
     21563     21562     21565     21567     21564     21562     21565     21566
     21564     21562     21565     21567     21565     21567     21569     21570
     21565     21567     21569     21571     21565     21567     21569     21572
     21566     21565     21567     21568     21566     21565     21567     21569
     21567     21569     21572     21573     21567     21569     21572     21574
     21568     21567     21569     21570     21568     21567     21569     21571
     21568     21567     21569     21572     21569     21572     21574     21575
     21569     21572     21574     21576     21570     21569     21572     21573
     21570     21569     21572     21574     21571     21569     21572     21573
     21571     21569     21572     21574     21572     21574     21576     21577
     21572     21574     21576     21578     21572     21574     21576     21579
     21573     21572     21574     21575     21573     21572     21574     21576
     21574     21576     21579     21580     21574     21576     21579     21581
     21575     21574     21576     21577     21575     21574     21576     21578
     21575     21574     21576     21579     21576     21579     21581     21582
     21576     21579     21581     21583     21577     21576     21579     21580
     21577     21576     21579     21581     21578     21576     21579     21580
     21578     21576     21579     21581     21579     21581     21583     21584
     21579     21581     21583     21585     21579     21581     21583     21586
     21580     21579     21581     21582     21580     21579     21581     21583
     21581     21583     21586     21587     21581     21583     21586     21588
     21582     21581     21583     21584     21582     21581     21583     21585
     21582     21581     21583     21586     21583     21586     21588     21589
     21583     21586     21588     21590     21584     21583     21586     21587
     21584     21583     21586     21588     21585     21583     21586     21587
     21585     21583     21586     21588     21586     21588     21590     21591
     21586     21588     21590     21592     21586     21588     21590     21593
     21587     21586     21588     21589     21587     21586     21588     21590
     21588     21590     21593     21594     21588     21590     21593     21595
     21588     21590     21593     21596     21589     21588     21590     21591
     21589     21588     21590     21592     21589     21588     21590     21593
     21590     21593     21596     21597     21590     21593     21596     21598
     21590     21593     21596     21599     21591     21590     21593     21594
     21591     21590     21593     21595     21591     21590     21593     21596
     21592     21590     21593     21594     21592     21590     21593     21595
     21592     21590     21593     21596     21593     21596     21599     21600
     21593     21596     21599     21601     21593     21596     21599     21602
     21594     21593     21596     21597     21594     21593     21596     21598
     21594     21593     21596     21599     21595     21593     21596     21597
     21595     21593     21596     21598     21595     21593     21596     21599
     21596     21599     21602     21603     21596     21599     21602     21604
     21596     21599     21602     21605     21597     21596     21599     21600
     21597     21596     21599     21601     21597     21596     21599     21602
     21598     21596     21599     21600     21598     21596     21599     21601
     21598     21596     21599     21602     21600     21599     21602     21603
     21600     21599     21602     21604     21600     21599     21602     21605
     21601     21599     21602     21603     21601     21599     21602     21604
     21601     21599     21602     21605     21606     21609     21612     21613
     21606     21609     21612     21614     21606     21609     21612     21615
     21607     21606     21609     21610     21607     21606     21609     21611
     21607     21606     21609     21612     21608     21606     21609     21610
     21608     21606     21609     21611     21608     21606     21609     21612
     21609     21612     21615     21616     21609     21612     21615     21617
     21609     21612     21615     21618     21610     21609     21612     21613
     21610     21609     21612     21614     21610     21609     21612     21615
     21611     21609     21612     21613     21611     21609     21612     21614
     21611     21609     21612     21615     21612     21615     21618     21619
     21612     21615     21618     21620     21612     21615     21618     21621
     21613     21612     21615     21616     21613     21612     21615     21617
     21613     21612     21615     21618     21614     21612     21615     21616
     21614     21612     21615     21617     21614     21612     21615     21618
     21615     21618     21621     21622     21615     21618     21621     21623
     21615     21618     21621     21624     21616     21615     21618     21619
     21616     21615     21618     21620     21616     21615     21618     21621
     21617     21615     21618     21619     21617     21615     21618     21620
     21617     21615     21618     21621     21618     21621     21624     21625
     21618     21621     21624     21626     21618     21621     21624     21627
     21619     21618     21621     21622     21619     21618     21621     21623
     21619     21618     21621     21624     21620     21618     21621     21622
     21620     21618     21621     21623     21620     21618     21621     21624
     21621     21624     21627     21628     21621     21624     21627     21629
     21621     21624     21627     21630     21622     21621     21624     21625
     21622     21621     21624     21626     21622     21621     21624     21627
     21623     21621     21624     21625     21623     21621     21624     21626
     21623     21621     21624     21627     21624     21627     21630     21631
     21624     21627     21630     21632     21624     21627     21630     21633
     21625     21624     21627     21628     21625     21624     21627     21629
     21625     21624     21627     21630     21626     21624     21627     21628
     21626     21624     21627     21629     21626     21624     21627     21630
     21627     21630     21633     21634     21627     21630     21633     21635
     21627     21630     21633     21636     21628     21627     21630     21631
     21628     21627     21630     21632     21628     21627     21630     21633
     21629     21627     21630     21631     21629     21627     21630     21632
     21629     21627     21630     21633     21630     21633     21636     21637
     21630     21633     21636     21638     21630     21633     21636     21639
     21631     21630     21633     21634     21631     21630     21633     21635
     21631     21630     21633     21636     21632     21630     21633     21634
     21632     21630     21633     21635     21632     21630     21633     21636
     21633     21636     21639     21640     21633     21636     21639     21641
     21633     21636     21639     21642     21634     21633     21636     21637
     21634     21633     21636     21638     21634     21633     21636     21639
     21635     21633     21636     21637     21635     21633     21636     21638
     21635     21633     21636     21639     21636     21639     21642     21643
     21636     21639     21642     21644     21636     21639     21642     21645
     21637     21636     21639     21640     21637     21636     21639     21641
     21637     21636     21639     21642     21638     21636     21639     21640
     21638     21636     21639     21641     21638     21636     21639     21642
     21639     21642     21645     21646     21639     21642     21645     21647
     21639     21642     21645     21648     21640     21639     21642     21643
     21640     21639     21642     21644     21640     21639     21642     21645
     21641     21639     21642     21643     21641     21639     21642     21644
     21641     21639     21642     21645     21642     21645     21648     21649
     21642     21645     21648     21650     21642     21645     21648     21651
     21643     21642     21645     21646     21643     21642     21645     21647
     21643     21642     21645     21648     21644     21642     21645     21646
     21644     21642     21645     21647     21644     21642     21645     21648
     21645     21648     21651     21652     21645     21648     21651     21653
     21645     21648     21651     21654     21646     21645     21648     21649
     21646     21645     21648     21650     21646     21645     21648     21651
     21647     21645     21648     21649     21647     21645     21648     21650
     21647     21645     21648     21651     21649     21648     21651     21652
     21649     21648     21651     21653     21649     21648     21651     21654
     21650     21648     21651     21652     21650     21648     21651     21653
     21650     21648     21651     21654     21655     21668     21671     21672
     21655     21668     21671     21673     21655     21668     21671     21678
     21656     21655     21660     21661     21656     21655     21660     21662
     21656     21655     21660     21663     21656     21655     21664     21665
     21656     21655     21664     21666     21656     21655     21664     21667
     21656     21655     21668     21669     21656     21655     21668     21670
     21656     21655     21668     21671     21657     21656     21655     21660
     21657     21656     21655     21664     21657     21656     21655     21668
     21658     21656     21655     21660     21658     21656     21655     21664
     21658     21656     21655     21668     21659     21656     21655     21660
     21659     21656     21655     21664     21659     21656     21655     21668
     21660     21655     21664     21665     21660     21655     21664     21666
     21660     21655     21664     21667     21660     21655     21668     21669
     21660     21655     21668     21670     21660     21655     21668     21671
     21661     21660     21655     21664     21661     21660     21655     21668
     21662     21660     21655     21664     21662     21660     21655     21668
     21663     21660     21655     21664     21663     21660     21655     21668
     21664     21655     21668     21669     21664     21655     21668     21670
     21664     21655     21668     21671     21665     21664     21655     21668
     21666     21664     21655     21668     21667     21664     21655     21668
     21668     21671     21678     21674     21669     21668     21671     21672
     21669     21668     21671     21673     21669     21668     21671     21678
     21670     21668     21671     21672     21670     21668     21671     21673
     21670     21668     21671     21678     21671     21678     21674     21675
     21671     21678     21674     21676     21671     21678     21674     21677
     21672     21671     21678     21674     21673     21671     21678     21674
     21674     21677     21679     21680     21674     21677     21679     21681
     21674     21677     21679     21684     21675     21674     21677     21679
     21676     21674     21677     21679     21677     21679     21684     21682
     21677     21679     21684     21685     21677     21679     21684     21686
     21678     21674     21677     21679     21679     21684     21682     21683
     21679     21684     21682     21734     21679     21684     21686     21687
     21679     21684     21686     21688     21679     21684     21686     21690
     21680     21679     21684     21682     21680     21679     21684     21685
     21680     21679     21684     21686     21681     21679     21684     21682
     21681     21679     21684     21685     21681     21679     21684     21686
     21682     21684     21686     21687     21682     21684     21686     21688
     21682     21684     21686     21690     21682     21734     21736     21737
     21682     21734     21736     21738     21682     21734     21736     21739
     21683     21682     21684     21685     21683     21682     21684     21686
     21683     21682     21734     21735     21683     21682     21734     21736
     21684     21682     21734     21735     21684     21682     21734     21736
     21684     21686     21688     21689     21684     21686     21690     21691
     21684     21686     21690     21692     21685     21684     21682     21734
     21685     21684     21686     21687     21685     21684     21686     21688
     21685     21684     21686     21690     21686     21684     21682     21734
     21686     21690     21692     21693     21686     21690     21692     21694
     21687     21686     21688     21689     21687     21686     21690     21691
     21687     21686     21690     21692     21688     21686     21690     21691
     21688     21686     21690     21692     21689     21688     21686     21690
     21690     21692     21694     21695     21690     21692     21694     21696
     21690     21692     21694     21697     21691     21690     21692     21693
     21691     21690     21692     21694     21692     21694     21697     21698
     21692     21694     21697     21699     21692     21694     21697     21700
     21693     21692     21694     21695     21693     21692     21694     21696
     21693     21692     21694     21697     21694     21697     21700     21701
     21694     21697     21700     21702     21694     21697     21700     21703
     21695     21694     21697     21698     21695     21694     21697     21699
     21695     21694     21697     21700     21696     21694     21697     21698
     21696     21694     21697     21699     21696     21694     21697     21700
     21697     21700     21703     21704     21697     21700     21703     21705
     21697     21700     21703     21706     21698     21697     21700     21701
     21698     21697     21700     21702     21698     21697     21700     21703
     21699     21697     21700     21701     21699     21697     21700     21702
     21699     21697     21700     21703     21700     21703     21706     21707
     21700     21703     21706     21708     21700     21703     21706     21709
     21701     21700     21703     21704     21701     21700     21703     21705
     21701     21700     21703     21706     21702     21700     21703     21704
     21702     21700     21703     21705     21702     21700     21703     21706
     21703     21706     21709     21710     21703     21706     21709     21711
     21703     21706     21709     21712     21704     21703     21706     21707
     21704     21703     21706     21708     21704     21703     21706     21709
     21705     21703     21706     21707     21705     21703     21706     21708
     21705     21703     21706     21709     21706     21709     21712     21713
     21706     21709     21712     21714     21706     21709     21712     21715
     21707     21706     21709     21710     21707     21706     21709     21711
     21707     21706     21709     21712     21708     21706     21709     21710
     21708     21706     21709     21711     21708     21706     21709     21712
     21709     21712     21715     21716     21709     21712     21715     21717
     21709     21712     21715     21718     21710     21709     21712     21713
     21710     21709     21712     21714     21710     21709     21712     21715
     21711     21709     21712     21713     21711     21709     21712     21714
     21711     21709     21712     21715     21712     21715     21718     21719
     21712     21715     21718     21720     21712     21715     21718     21721
     21713     21712     21715     21716     21713     21712     21715     21717
     21713     21712     21715     21718     21714     21712     21715     21716
     21714     21712     21715     21717     21714     21712     21715     21718
     21715     21718     21721     21722     21715     21718     21721     21723
     21715     21718     21721     21724     21716     21715     21718     21719
     21716     21715     21718     21720     21716     21715     21718     21721
     21717     21715     21718     21719     21717     21715     21718     21720
     21717     21715     21718     21721     21718     21721     21724     21725
     21718     21721     21724     21726     21718     21721     21724     21727
     21719     21718     21721     21722     21719     21718     21721     21723
     21719     21718     21721     21724     21720     21718     21721     21722
     21720     21718     21721     21723     21720     21718     21721     21724
     21721     21724     21727     21728     21721     21724     21727     21729
     21721     21724     21727     21730     21722     21721     21724     21725
     21722     21721     21724     21726     21722     21721     21724     21727
     21723     21721     21724     21725     21723     21721     21724     21726
     21723     21721     21724     21727     21724     21727     21730     21731
     21724     21727     21730     21732     21724     21727     21730     21733
     21725     21724     21727     21728     21725     21724     21727     21729
     21725     21724     21727     21730     21726     21724     21727     21728
     21726     21724     21727     21729     21726     21724     21727     21730
     21728     21727     21730     21731     21728     21727     21730     21732
     21728     21727     21730     21733     21729     21727     21730     21731
     21729     21727     21730     21732     21729     21727     21730     21733
     21734     21736     21739     21740     21734     21736     21739     21741
     21734     21736     21739     21742     21735     21734     21736     21737
     21735     21734     21736     21738     21735     21734     21736     21739
     21736     21739     21742     21743     21736     21739     21742     21744
     21736     21739     21742     21745     21737     21736     21739     21740
     21737     21736     21739     21741     21737     21736     21739     21742
     21738     21736     21739     21740     21738     21736     21739     21741
     21738     21736     21739     21742     21739     21742     21745     21746
     21739     21742     21745     21747     21739     21742     21745     21748
     21740     21739     21742     21743     21740     21739     21742     21744
     21740     21739     21742     21745     21741     21739     21742     21743
     21741     21739     21742     21744     21741     21739     21742     21745
     21742     21745     21748     21749     21742     21745     21748     21750
     21742     21745     21748     21751     21743     21742     21745     21746
     21743     21742     21745     21747     21743     21742     21745     21748
     21744     21742     21745     21746     21744     21742     21745     21747
     21744     21742     21745     21748     21745     21748     21751     21752
     21745     21748     21751     21753     21745     21748     21751     21754
     21746     21745     21748     21749     21746     21745     21748     21750
     21746     21745     21748     21751     21747     21745     21748     21749
     21747     21745     21748     21750     21747     21745     21748     21751
     21748     21751     21754     21755     21748     21751     21754     21756
     21748     21751     21754     21757     21749     21748     21751     21752
     21749     21748     21751     21753     21749     21748     21751     21754
     21750     21748     21751     21752     21750     21748     21751     21753
     21750     21748     21751     21754     21751     21754     21757     21758
     21751     21754     21757     21759     21752     21751     21754     21755
     21752     21751     21754     21756     21752     21751     21754     21757
     21753     21751     21754     21755     21753     21751     21754     21756
     21753     21751     21754     21757     21754     21757     21759     21760
     21754     21757     21759     21761     21755     21754     21757     21758
     21755     21754     21757     21759     21756     21754     21757     21758
     21756     21754     21757     21759     21757     21759     21761     21762
     21757     21759     21761     21763     21757     21759     21761     21764
     21758     21757     21759     21760     21758     21757     21759     21761
     21759     21761     21764     21765     21759     21761     21764     21766
     21759     21761     21764     21767     21760     21759     21761     21762
     21760     21759     21761     21763     21760     21759     21761     21764
     21761     21764     21767     21768     21761     21764     21767     21769
     21761     21764     21767     21770     21762     21761     21764     21765
     21762     21761     21764     21766     21762     21761     21764     21767
     21763     21761     21764     21765     21763     21761     21764     21766
     21763     21761     21764     21767     21764     21767     21770     21771
     21764     21767     21770     21772     21764     21767     21770     21773
     21765     21764     21767     21768     21765     21764     21767     21769
     21765     21764     21767     21770     21766     21764     21767     21768
     21766     21764     21767     21769     21766     21764     21767     21770
     21767     21770     21773     21774     21767     21770     21773     21775
     21767     21770     21773     21776     21768     21767     21770     21771
     21768     21767     21770     21772     21768     21767     21770     21773
     21769     21767     21770     21771     21769     21767     21770     21772
     21769     21767     21770     21773     21770     21773     21776     21777
     21770     21773     21776     21778     21770     21773     21776     21779
     21771     21770     21773     21774     21771     21770     21773     21775
     21771     21770     21773     21776     21772     21770     21773     21774
     21772     21770     21773     21775     21772     21770     21773     21776
     21773     21776     21779     21780     21773     21776     21779     21781
     21773     21776     21779     21782     21774     21773     21776     21777
     21774     21773     21776     21778     21774     21773     21776     21779
     21775     21773     21776     21777     21775     21773     21776     21778
     21775     21773     21776     21779     21776     21779     21782     21783
     21776     21779     21782     21784     21776     21779     21782     21785
     21777     21776     21779     21780     21777     21776     21779     21781
     21777     21776     21779     21782     21778     21776     21779     21780
     21778     21776     21779     21781     21778     21776     21779     21782
     21780     21779     21782     21783     21780     21779     21782     21784
     21780     21779     21782     21785     21781     21779     21782     21783
     21781     21779     21782     21784     21781     21779     21782     21785
     21786     21799     21802     21803     21786     21799     21802     21804
     21786     21799     21802     21809     21787     21786     21791     21792
     21787     21786     21791     21793     21787     21786     21791     21794
     21787     21786     21795     21796     21787     21786     21795     21797
     21787     21786     21795     21798     21787     21786     21799     21800
     21787     21786     21799     21801     21787     21786     21799     21802
     21788     21787     21786     21791     21788     21787     21786     21795
     21788     21787     21786     21799     21789     21787     21786     21791
     21789     21787     21786     21795     21789     21787     21786     21799
     21790     21787     21786     21791     21790     21787     21786     21795
     21790     21787     21786     21799     21791     21786     21795     21796
     21791     21786     21795     21797     21791     21786     21795     21798
     21791     21786     21799     21800     21791     21786     21799     21801
     21791     21786     21799     21802     21792     21791     21786     21795
     21792     21791     21786     21799     21793     21791     21786     21795
     21793     21791     21786     21799     21794     21791     21786     21795
     21794     21791     21786     21799     21795     21786     21799     21800
     21795     21786     21799     21801     21795     21786     21799     21802
     21796     21795     21786     21799     21797     21795     21786     21799
     21798     21795     21786     21799     21799     21802     21809     21805
     21800     21799     21802     21803     21800     21799     21802     21804
     21800     21799     21802     21809     21801     21799     21802     21803
     21801     21799     21802     21804     21801     21799     21802     21809
     21802     21809     21805     21806     21802     21809     21805     21807
     21802     21809     21805     21808     21803     21802     21809     21805
     21804     21802     21809     21805     21805     21808     21810     21811
     21805     21808     21810     21812     21805     21808     21810     21815
     21806     21805     21808     21810     21807     21805     21808     21810
     21808     21810     21815     21813     21808     21810     21815     21816
     21808     21810     21815     21817     21809     21805     21808     21810
     21810     21815     21813     21814     21810     21815     21813     21865
     21810     21815     21817     21818     21810     21815     21817     21819
     21810     21815     21817     21821     21811     21810     21815     21813
     21811     21810     21815     21816     21811     21810     21815     21817
     21812     21810     21815     21813     21812     21810     21815     21816
     21812     21810     21815     21817     21813     21815     21817     21818
     21813     21815     21817     21819     21813     21815     21817     21821
     21813     21865     21867     21868     21813     21865     21867     21869
     21813     21865     21867     21870     21814     21813     21815     21816
     21814     21813     21815     21817     21814     21813     21865     21866
     21814     21813     21865     21867     21815     21813     21865     21866
     21815     21813     21865     21867     21815     21817     21819     21820
     21815     21817     21821     21822     21815     21817     21821     21823
     21816     21815     21813     21865     21816     21815     21817     21818
     21816     21815     21817     21819     21816     21815     21817     21821
     21817     21815     21813     21865     21817     21821     21823     21824
     21817     21821     21823     21825     21818     21817     21819     21820
     21818     21817     21821     21822     21818     21817     21821     21823
     21819     21817     21821     21822     21819     21817     21821     21823
     21820     21819     21817     21821     21821     21823     21825     21826
     21821     21823     21825     21827     21821     21823     21825     21828
     21822     21821     21823     21824     21822     21821     21823     21825
     21823     21825     21828     21829     21823     21825     21828     21830
     21823     21825     21828     21831     21824     21823     21825     21826
     21824     21823     21825     21827     21824     21823     21825     21828
     21825     21828     21831     21832     21825     21828     21831     21833
     21825     21828     21831     21834     21826     21825     21828     21829
     21826     21825     21828     21830     21826     21825     21828     21831
     21827     21825     21828     21829     21827     21825     21828     21830
     21827     21825     21828     21831     21828     21831     21834     21835
     21828     21831     21834     21836     21828     21831     21834     21837
     21829     21828     21831     21832     21829     21828     21831     21833
     21829     21828     21831     21834     21830     21828     21831     21832
     21830     21828     21831     21833     21830     21828     21831     21834
     21831     21834     21837     21838     21831     21834     21837     21839
     21831     21834     21837     21840     21832     21831     21834     21835
     21832     21831     21834     21836     21832     21831     21834     21837
     21833     21831     21834     21835     21833     21831     21834     21836
     21833     21831     21834     21837     21834     21837     21840     21841
     21834     21837     21840     21842     21834     21837     21840     21843
     21835     21834     21837     21838     21835     21834     21837     21839
     21835     21834     21837     21840     21836     21834     21837     21838
     21836     21834     21837     21839     21836     21834     21837     21840
     21837     21840     21843     21844     21837     21840     21843     21845
     21837     21840     21843     21846     21838     21837     21840     21841
     21838     21837     21840     21842     21838     21837     21840     21843
     21839     21837     21840     21841     21839     21837     21840     21842
     21839     21837     21840     21843     21840     21843     21846     21847
     21840     21843     21846     21848     21840     21843     21846     21849
     21841     21840     21843     21844     21841     21840     21843     21845
     21841     21840     21843     21846     21842     21840     21843     21844
     21842     21840     21843     21845     21842     21840     21843     21846
     21843     21846     21849     21850     21843     21846     21849     21851
     21843     21846     21849     21852     21844     21843     21846     21847
     21844     21843     21846     21848     21844     21843     21846     21849
     21845     21843     21846     21847     21845     21843     21846     21848
     21845     21843     21846     21849     21846     21849     21852     21853
     21846     21849     21852     21854     21846     21849     21852     21855
     21847     21846     21849     21850     21847     21846     21849     21851
     21847     21846     21849     21852     21848     21846     21849     21850
     21848     21846     21849     21851     21848     21846     21849     21852
     21849     21852     21855     21856     21849     21852     21855     21857
     21849     21852     21855     21858     21850     21849     21852     21853
     21850     21849     21852     21854     21850     21849     21852     21855
     21851     21849     21852     21853     21851     21849     21852     21854
     21851     21849     21852     21855     21852     21855     21858     21859
     21852     21855     21858     21860     21852     21855     21858     21861
     21853     21852     21855     21856     21853     21852     21855     21857
     21853     21852     21855     21858     21854     21852     21855     21856
     21854     21852     21855     21857     21854     21852     21855     21858
     21855     21858     21861     21862     21855     21858     21861     21863
     21855     21858     21861     21864     21856     21855     21858     21859
     21856     21855     21858     21860     21856     21855     21858     21861
     21857     21855     21858     21859     21857     21855     21858     21860
     21857     21855     21858     21861     21859     21858     21861     21862
     21859     21858     21861     21863     21859     21858     21861     21864
     21860     21858     21861     21862     21860     21858     21861     21863
     21860     21858     21861     21864     21865     21867     21870     21871
     21865     21867     21870     21872     21865     21867     21870     21873
     21866     21865     21867     21868     21866     21865     21867     21869
     21866     21865     21867     21870     21867     21870     21873     21874
     21867     21870     21873     21875     21867     21870     21873     21876
     21868     21867     21870     21871     21868     21867     21870     21872
     21868     21867     21870     21873     21869     21867     21870     21871
     21869     21867     21870     21872     21869     21867     21870     21873
     21870     21873     21876     21877     21870     21873     21876     21878
     21870     21873     21876     21879     21871     21870     21873     21874
     21871     21870     21873     21875     21871     21870     21873     21876
     21872     21870     21873     21874     21872     21870     21873     21875
     21872     21870     21873     21876     21873     21876     21879     21880
     21873     21876     21879     21881     21873     21876     21879     21882
     21874     21873     21876     21877     21874     21873     21876     21878
     21874     21873     21876     21879     21875     21873     21876     21877
     21875     21873     21876     21878     21875     21873     21876     21879
     21876     21879     21882     21883     21876     21879     21882     21884
     21876     21879     21882     21885     21877     21876     21879     21880
     21877     21876     21879     21881     21877     21876     21879     21882
     21878     21876     21879     21880     21878     21876     21879     21881
     21878     21876     21879     21882     21879     21882     21885     21886
     21879     21882     21885     21887     21879     21882     21885     21888
     21880     21879     21882     21883     21880     21879     21882     21884
     21880     21879     21882     21885     21881     21879     21882     21883
     21881     21879     21882     21884     21881     21879     21882     21885
     21882     21885     21888     21889     21882     21885     21888     21890
     21883     21882     21885     21886     21883     21882     21885     21887
     21883     21882     21885     21888     21884     21882     21885     21886
     21884     21882     21885     21887     21884     21882     21885     21888
     21885     21888     21890     21891     21885     21888     21890     21892
     21886     21885     21888     21889     21886     21885     21888     21890
     21887     21885     21888     21889     21887     21885     21888     21890
     21888     21890     21892     21893     21888     21890     21892     21894
     21888     21890     21892     21895     21889     21888     21890     21891
     21889     21888     21890     21892     21890     21892     21895     21896
     21890     21892     21895     21897     21890     21892     21895     21898
     21891     21890     21892     21893     21891     21890     21892     21894
     21891     21890     21892     21895     21892     21895     21898     21899
     21892     21895     21898     21900     21892     21895     21898     21901
     21893     21892     21895     21896     21893     21892     21895     21897
     21893     21892     21895     21898     21894     21892     21895     21896
     21894     21892     21895     21897     21894     21892     21895     21898
     21895     21898     21901     21902     21895     21898     21901     21903
     21895     21898     21901     21904     21896     21895     21898     21899
     21896     21895     21898     21900     21896     21895     21898     21901
     21897     21895     21898     21899     21897     21895     21898     21900
     21897     21895     21898     21901     21898     21901     21904     21905
     21898     21901     21904     21906     21898     21901     21904     21907
     21899     21898     21901     21902     21899     21898     21901     21903
     21899     21898     21901     21904     21900     21898     21901     21902
     21900     21898     21901     21903     21900     21898     21901     21904
     21901     21904     21907     21908     21901     21904     21907     21909
     21901     21904     21907     21910     21902     21901     21904     21905
     21902     21901     21904     21906     21902     21901     21904     21907
     21903     21901     21904     21905     21903     21901     21904     21906
     21903     21901     21904     21907     21904     21907     21910     21911
     21904     21907     21910     21912     21904     21907     21910     21913
     21905     21904     21907     21908     21905     21904     21907     21909
     21905     21904     21907     21910     21906     21904     21907     21908
     21906     21904     21907     21909     21906     21904     21907     21910
     21907     21910     21913     21914     21907     21910     21913     21915
     21907     21910     21913     21916     21908     21907     21910     21911
     21908     21907     21910     21912     21908     21907     21910     21913
     21909     21907     21910     21911     21909     21907     21910     21912
     21909     21907     21910     21913     21911     21910     21913     21914
     21911     21910     21913     21915     21911     21910     21913     21916
     21912     21910     21913     21914     21912     21910     21913     21915
     21912     21910     21913     21916     21917     21921     21924     21925
     21917     21921     21924     21926     21917     21921     21924     21930
     21918     21917     21921     21922     21918     21917     21921     21923
     21918     21917     21921     21924     21919     21917     21921     21922
     21919     21917     21921     21923     21919     21917     21921     21924
     21920     21917     21921     21922     21920     21917     21921     21923
     21920     21917     21921     21924     21921     21924     21930     21927
     21922     21921     21924     21925     21922     21921     21924     21926
     21922     21921     21924     21930     21923     21921     21924     21925
     21923     21921     21924     21926     21923     21921     21924     21930
     21924     21930     21927     21928     21924     21930     21927     21929
     21924     21930     21927     21931     21925     21924     21930     21927
     21926     21924     21930     21927     21927     21931     21932     21933
     21927     21931     21932     21934     21927     21931     21932     21935
     21928     21927     21931     21932     21929     21927     21931     21932
     21930     21927     21931     21932     21931     21932     21935     21936
     21931     21932     21935     21937     21931     21932     21935     21943
     21932     21935     21937     21938     21932     21935     21943     21944
     21932     21935     21943     21945     21932     21935     21943     21946
     21933     21932     21935     21936     21933     21932     21935     21937
     21933     21932     21935     21943     21934     21932     21935     21936
     21934     21932     21935     21937     21934     21932     21935     21943
     21935     21937     21938     21939     21935     21937     21938     21940
     21935     21943     21946     21947     21936     21935     21937     21938
     21936     21935     21943     21944     21936     21935     21943     21945
     21936     21935     21943     21946     21937     21935     21943     21944
     21937     21935     21943     21945     21937     21935     21943     21946
     21937     21938     21940     21941     21937     21938     21940     21942
     21937     21938     21940     21952     21938     21937     21935     21943
     21938     21940     21952     21953     21938     21940     21952     21954
     21938     21940     21952     21955     21939     21938     21940     21941
     21939     21938     21940     21942     21939     21938     21940     21952
     21940     21952     21955     21956     21940     21952     21955     21957
     21940     21952     21955     21958     21941     21940     21952     21953
     21941     21940     21952     21954     21941     21940     21952     21955
     21942     21940     21952     21953     21942     21940     21952     21954
     21942     21940     21952     21955     21943     21946     21947     21948
     21943     21946     21947     21949     21944     21943     21946     21947
     21945     21943     21946     21947     21946     21947     21949     21950
     21946     21947     21949     21951     21946     21947     21949     21999
     21947     21949     21999     22000     21947     21949     21999     22001
     21947     21949     21999     22002     21948     21947     21949     21950
     21948     21947     21949     21951     21948     21947     21949     21999
     21949     21999     22002     22003     21949     21999     22002     22004
     21949     21999     22002     22005     21950     21949     21999     22000
     21950     21949     21999     22001     21950     21949     21999     22002
     21951     21949     21999     22000     21951     21949     21999     22001
     21951     21949     21999     22002     21952     21955     21958     21959
     21952     21955     21958     21960     21953     21952     21955     21956
     21953     21952     21955     21957     21953     21952     21955     21958
     21954     21952     21955     21956     21954     21952     21955     21957
     21954     21952     21955     21958     21955     21958     21960     21961
     21955     21958     21960     21962     21956     21955     21958     21959
     21956     21955     21958     21960     21957     21955     21958     21959
     21957     21955     21958     21960     21958     21960     21962     21963
     21958     21960     21962     21964     21958     21960     21962     21965
     21959     21958     21960     21961     21959     21958     21960     21962
     21960     21962     21965     21966     21960     21962     21965     21967
     21961     21960     21962     21963     21961     21960     21962     21964
     21961     21960     21962     21965     21962     21965     21967     21968
     21962     21965     21967     21969     21963     21962     21965     21966
     21963     21962     21965     21967     21964     21962     21965     21966
     21964     21962     21965     21967     21965     21967     21969     21970
     21965     21967     21969     21971     21965     21967     21969     21972
     21966     21965     21967     21968     21966     21965     21967     21969
     21967     21969     21972     21973     21967     21969     21972     21974
     21968     21967     21969     21970     21968     21967     21969     21971
     21968     21967     21969     21972     21969     21972     21974     21975
     21969     21972     21974     21976     21970     21969     21972     21973
     21970     21969     21972     21974     21971     21969     21972     21973
     21971     21969     21972     21974     21972     21974     21976     21977
     21972     21974     21976     21978     21972     21974     21976     21979
     21973     21972     21974     21975     21973     21972     21974     21976
     21974     21976     21979     21980     21974     21976     21979     21981
     21975     21974     21976     21977     21975     21974     21976     21978
     21975     21974     21976     21979     21976     21979     21981     21982
     21976     21979     21981     21983     21977     21976     21979     21980
     21977     21976     21979     21981     21978     21976     21979     21980
     21978     21976     21979     21981     21979     21981     21983     21984
     21979     21981     21983     21985     21979     21981     21983     21986
     21980     21979     21981     21982     21980     21979     21981     21983
     21981     21983     21986     21987     21981     21983     21986     21988
     21981     21983     21986     21989     21982     21981     21983     21984
     21982     21981     21983     21985     21982     21981     21983     21986
     21983     21986     21989     21990     21983     21986     21989     21991
     21983     21986     21989     21992     21984     21983     21986     21987
     21984     21983     21986     21988     21984     21983     21986     21989
     21985     21983     21986     21987     21985     21983     21986     21988
     21985     21983     21986     21989     21986     21989     21992     21993
     21986     21989     21992     21994     21986     21989     21992     21995
     21987     21986     21989     21990     21987     21986     21989     21991
     21987     21986     21989     21992     21988     21986     21989     21990
     21988     21986     21989     21991     21988     21986     21989     21992
     21989     21992     21995     21996     21989     21992     21995     21997
     21989     21992     21995     21998     21990     21989     21992     21993
     21990     21989     21992     21994     21990     21989     21992     21995
     21991     21989     21992     21993     21991     21989     21992     21994
     21991     21989     21992     21995     21993     21992     21995     21996
     21993     21992     21995     21997     21993     21992     21995     21998
     21994     21992     21995     21996     21994     21992     21995     21997
     21994     21992     21995     21998     21999     22002     22005     22006
     21999     22002     22005     22007     21999     22002     22005     22008
     22000     21999     22002     22003     22000     21999     22002     22004
     22000     21999     22002     22005     22001     21999     22002     22003
     22001     21999     22002     22004     22001     21999     22002     22005
     22002     22005     22008     22009     22002     22005     22008     22010
     22002     22005     22008     22011     22003     22002     22005     22006
     22003     22002     22005     22007     22003     22002     22005     22008
     22004     22002     22005     22006     22004     22002     22005     22007
     22004     22002     22005     22008     22005     22008     22011     22012
     22005     22008     22011     22013     22005     22008     22011     22014
     22006     22005     22008     22009     22006     22005     22008     22010
     22006     22005     22008     22011     22007     22005     22008     22009
     22007     22005     22008     22010     22007     22005     22008     22011
     22008     22011     22014     22015     22008     22011     22014     22016
     22008     22011     22014     22017     22009     22008     22011     22012
     22009     22008     22011     22013     22009     22008     22011     22014
     22010     22008     22011     22012     22010     22008     22011     22013
     22010     22008     22011     22014     22011     22014     22017     22018
     22011     22014     22017     22019     22011     22014     22017     22020
     22012     22011     22014     22015     22012     22011     22014     22016
     22012     22011     22014     22017     22013     22011     22014     22015
     22013     22011     22014     22016     22013     22011     22014     22017
     22014     22017     22020     22021     22014     22017     22020     22022
     22014     22017     22020     22023     22015     22014     22017     22018
     22015     22014     22017     22019     22015     22014     22017     22020
     22016     22014     22017     22018     22016     22014     22017     22019
     22016     22014     22017     22020     22017     22020     22023     22024
     22017     22020     22023     22025     22017     22020     22023     22026
     22018     22017     22020     22021     22018     22017     22020     22022
     22018     22017     22020     22023     22019     22017     22020     22021
     22019     22017     22020     22022     22019     22017     22020     22023
     22020     22023     22026     22027     22020     22023     22026     22028
     22020     22023     22026     22029     22021     22020     22023     22024
     22021     22020     22023     22025     22021     22020     22023     22026
     22022     22020     22023     22024     22022     22020     22023     22025
     22022     22020     22023     22026     22023     22026     22029     22030
     22023     22026     22029     22031     22023     22026     22029     22032
     22024     22023     22026     22027     22024     22023     22026     22028
     22024     22023     22026     22029     22025     22023     22026     22027
     22025     22023     22026     22028     22025     22023     22026     22029
     22026     22029     22032     22033     22026     22029     22032     22034
     22026     22029     22032     22035     22027     22026     22029     22030
     22027     22026     22029     22031     22027     22026     22029     22032
     22028     22026     22029     22030     22028     22026     22029     22031
     22028     22026     22029     22032     22029     22032     22035     22036
     22029     22032     22035     22037     22029     22032     22035     22038
     22030     22029     22032     22033     22030     22029     22032     22034
     22030     22029     22032     22035     22031     22029     22032     22033
     22031     22029     22032     22034     22031     22029     22032     22035
     22032     22035     22038     22039     22032     22035     22038     22040
     22032     22035     22038     22041     22033     22032     22035     22036
     22033     22032     22035     22037     22033     22032     22035     22038
     22034     22032     22035     22036     22034     22032     22035     22037
     22034     22032     22035     22038     22035     22038     22041     22042
     22035     22038     22041     22043     22035     22038     22041     22044
     22036     22035     22038     22039     22036     22035     22038     22040
     22036     22035     22038     22041     22037     22035     22038     22039
     22037     22035     22038     22040     22037     22035     22038     22041
     22038     22041     22044     22045     22038     22041     22044     22046
     22038     22041     22044     22047     22039     22038     22041     22042
     22039     22038     22041     22043     22039     22038     22041     22044
     22040     22038     22041     22042     22040     22038     22041     22043
     22040     22038     22041     22044     22042     22041     22044     22045
     22042     22041     22044     22046     22042     22041     22044     22047
     22043     22041     22044     22045     22043     22041     22044     22046
     22043     22041     22044     22047     22048     22052     22055     22056
     22048     22052     22055     22057     22048     22052     22055     22061
     22049     22048     22052     22053     22049     22048     22052     22054
     22049     22048     22052     22055     22050     22048     22052     22053
     22050     22048     22052     22054     22050     22048     22052     22055
     22051     22048     22052     22053     22051     22048     22052     22054
     22051     22048     22052     22055     22052     22055     22061     22058
     22053     22052     22055     22056     22053     22052     22055     22057
     22053     22052     22055     22061     22054     22052     22055     22056
     22054     22052     22055     22057     22054     22052     22055     22061
     22055     22061     22058     22059     22055     22061     22058     22060
     22055     22061     22058     22062     22056     22055     22061     22058
     22057     22055     22061     22058     22058     22062     22063     22064
     22058     22062     22063     22065     22058     22062     22063     22066
     22059     22058     22062     22063     22060     22058     22062     22063
     22061     22058     22062     22063     22062     22063     22066     22067
     22062     22063     22066     22068     22062     22063     22066     22074
     22063     22066     22068     22069     22063     22066     22074     22075
     22063     22066     22074     22076     22063     22066     22074     22077
     22064     22063     22066     22067     22064     22063     22066     22068
     22064     22063     22066     22074     22065     22063     22066     22067
     22065     22063     22066     22068     22065     22063     22066     22074
     22066     22068     22069     22070     22066     22068     22069     22071
     22066     22074     22077     22078     22067     22066     22068     22069
     22067     22066     22074     22075     22067     22066     22074     22076
     22067     22066     22074     22077     22068     22066     22074     22075
     22068     22066     22074     22076     22068     22066     22074     22077
     22068     22069     22071     22072     22068     22069     22071     22073
     22068     22069     22071     22083     22069     22068     22066     22074
     22069     22071     22083     22084     22069     22071     22083     22085
     22069     22071     22083     22086     22070     22069     22071     22072
     22070     22069     22071     22073     22070     22069     22071     22083
     22071     22083     22086     22087     22071     22083     22086     22088
     22071     22083     22086     22089     22072     22071     22083     22084
     22072     22071     22083     22085     22072     22071     22083     22086
     22073     22071     22083     22084     22073     22071     22083     22085
     22073     22071     22083     22086     22074     22077     22078     22079
     22074     22077     22078     22080     22075     22074     22077     22078
     22076     22074     22077     22078     22077     22078     22080     22081
     22077     22078     22080     22082     22077     22078     22080     22130
     22078     22080     22130     22131     22078     22080     22130     22132
     22078     22080     22130     22133     22079     22078     22080     22081
     22079     22078     22080     22082     22079     22078     22080     22130
     22080     22130     22133     22134     22080     22130     22133     22135
     22080     22130     22133     22136     22081     22080     22130     22131
     22081     22080     22130     22132     22081     22080     22130     22133
     22082     22080     22130     22131     22082     22080     22130     22132
     22082     22080     22130     22133     22083     22086     22089     22090
     22083     22086     22089     22091     22084     22083     22086     22087
     22084     22083     22086     22088     22084     22083     22086     22089
     22085     22083     22086     22087     22085     22083     22086     22088
     22085     22083     22086     22089     22086     22089     22091     22092
     22086     22089     22091     22093     22087     22086     22089     22090
     22087     22086     22089     22091     22088     22086     22089     22090
     22088     22086     22089     22091     22089     22091     22093     22094
     22089     22091     22093     22095     22089     22091     22093     22096
     22090     22089     22091     22092     22090     22089     22091     22093
     22091     22093     22096     22097     22091     22093     22096     22098
     22092     22091     22093     22094     22092     22091     22093     22095
     22092     22091     22093     22096     22093     22096     22098     22099
     22093     22096     22098     22100     22094     22093     22096     22097
     22094     22093     22096     22098     22095     22093     22096     22097
     22095     22093     22096     22098     22096     22098     22100     22101
     22096     22098     22100     22102     22096     22098     22100     22103
     22097     22096     22098     22099     22097     22096     22098     22100
     22098     22100     22103     22104     22098     22100     22103     22105
     22099     22098     22100     22101     22099     22098     22100     22102
     22099     22098     22100     22103     22100     22103     22105     22106
     22100     22103     22105     22107     22101     22100     22103     22104
     22101     22100     22103     22105     22102     22100     22103     22104
     22102     22100     22103     22105     22103     22105     22107     22108
     22103     22105     22107     22109     22103     22105     22107     22110
     22104     22103     22105     22106     22104     22103     22105     22107
     22105     22107     22110     22111     22105     22107     22110     22112
     22106     22105     22107     22108     22106     22105     22107     22109
     22106     22105     22107     22110     22107     22110     22112     22113
     22107     22110     22112     22114     22108     22107     22110     22111
     22108     22107     22110     22112     22109     22107     22110     22111
     22109     22107     22110     22112     22110     22112     22114     22115
     22110     22112     22114     22116     22110     22112     22114     22117
     22111     22110     22112     22113     22111     22110     22112     22114
     22112     22114     22117     22118     22112     22114     22117     22119
     22112     22114     22117     22120     22113     22112     22114     22115
     22113     22112     22114     22116     22113     22112     22114     22117
     22114     22117     22120     22121     22114     22117     22120     22122
     22114     22117     22120     22123     22115     22114     22117     22118
     22115     22114     22117     22119     22115     22114     22117     22120
     22116     22114     22117     22118     22116     22114     22117     22119
     22116     22114     22117     22120     22117     22120     22123     22124
     22117     22120     22123     22125     22117     22120     22123     22126
     22118     22117     22120     22121     22118     22117     22120     22122
     22118     22117     22120     22123     22119     22117     22120     22121
     22119     22117     22120     22122     22119     22117     22120     22123
     22120     22123     22126     22127     22120     22123     22126     22128
     22120     22123     22126     22129     22121     22120     22123     22124
     22121     22120     22123     22125     22121     22120     22123     22126
     22122     22120     22123     22124     22122     22120     22123     22125
     22122     22120     22123     22126     22124     22123     22126     22127
     22124     22123     22126     22128     22124     22123     22126     22129
     22125     22123     22126     22127     22125     22123     22126     22128
     22125     22123     22126     22129     22130     22133     22136     22137
     22130     22133     22136     22138     22130     22133     22136     22139
     22131     22130     22133     22134     22131     22130     22133     22135
     22131     22130     22133     22136     22132     22130     22133     22134
     22132     22130     22133     22135     22132     22130     22133     22136
     22133     22136     22139     22140     22133     22136     22139     22141
     22133     22136     22139     22142     22134     22133     22136     22137
     22134     22133     22136     22138     22134     22133     22136     22139
     22135     22133     22136     22137     22135     22133     22136     22138
     22135     22133     22136     22139     22136     22139     22142     22143
     22136     22139     22142     22144     22136     22139     22142     22145
     22137     22136     22139     22140     22137     22136     22139     22141
     22137     22136     22139     22142     22138     22136     22139     22140
     22138     22136     22139     22141     22138     22136     22139     22142
     22139     22142     22145     22146     22139     22142     22145     22147
     22139     22142     22145     22148     22140     22139     22142     22143
     22140     22139     22142     22144     22140     22139     22142     22145
     22141     22139     22142     22143     22141     22139     22142     22144
     22141     22139     22142     22145     22142     22145     22148     22149
     22142     22145     22148     22150     22142     22145     22148     22151
     22143     22142     22145     22146     22143     22142     22145     22147
     22143     22142     22145     22148     22144     22142     22145     22146
     22144     22142     22145     22147     22144     22142     22145     22148
     22145     22148     22151     22152     22145     22148     22151     22153
     22145     22148     22151     22154     22146     22145     22148     22149
     22146     22145     22148     22150     22146     22145     22148     22151
     22147     22145     22148     22149     22147     22145     22148     22150
     22147     22145     22148     22151     22148     22151     22154     22155
     22148     22151     22154     22156     22148     22151     22154     22157
     22149     22148     22151     22152     22149     22148     22151     22153
     22149     22148     22151     22154     22150     22148     22151     22152
     22150     22148     22151     22153     22150     22148     22151     22154
     22151     22154     22157     22158     22151     22154     22157     22159
     22151     22154     22157     22160     22152     22151     22154     22155
     22152     22151     22154     22156     22152     22151     22154     22157
     22153     22151     22154     22155     22153     22151     22154     22156
     22153     22151     22154     22157     22154     22157     22160     22161
     22154     22157     22160     22162     22154     22157     22160     22163
     22155     22154     22157     22158     22155     22154     22157     22159
     22155     22154     22157     22160     22156     22154     22157     22158
     22156     22154     22157     22159     22156     22154     22157     22160
     22157     22160     22163     22164     22157     22160     22163     22165
     22157     22160     22163     22166     22158     22157     22160     22161
     22158     22157     22160     22162     22158     22157     22160     22163
     22159     22157     22160     22161     22159     22157     22160     22162
     22159     22157     22160     22163     22160     22163     22166     22167
     22160     22163     22166     22168     22160     22163     22166     22169
     22161     22160     22163     22164     22161     22160     22163     22165
     22161     22160     22163     22166     22162     22160     22163     22164
     22162     22160     22163     22165     22162     22160     22163     22166
     22163     22166     22169     22170     22163     22166     22169     22171
     22163     22166     22169     22172     22164     22163     22166     22167
     22164     22163     22166     22168     22164     22163     22166     22169
     22165     22163     22166     22167     22165     22163     22166     22168
     22165     22163     22166     22169     22166     22169     22172     22173
     22166     22169     22172     22174     22166     22169     22172     22175
     22167     22166     22169     22170     22167     22166     22169     22171
     22167     22166     22169     22172     22168     22166     22169     22170
     22168     22166     22169     22171     22168     22166     22169     22172
     22169     22172     22175     22176     22169     22172     22175     22177
     22169     22172     22175     22178     22170     22169     22172     22173
     22170     22169     22172     22174     22170     22169     22172     22175
     22171     22169     22172     22173     22171     22169     22172     22174
     22171     22169     22172     22175     22173     22172     22175     22176
     22173     22172     22175     22177     22173     22172     22175     22178
     22174     22172     22175     22176     22174     22172     22175     22177
     22174     22172     22175     22178     22179     22183     22186     22187
     22179     22183     22186     22217     22179     22225     22222     22217
     22179     22225     22222     22223     22179     22225     22222     22224
     22180     22179     22181     22182     22180     22179     22183     22184
     22180     22179     22183     22185     22180     22179     22183     22186
     22180     22179     22225     22222     22180     22179     22225     22226
     22180     22179     22225     22227     22181     22179     22183     22184
     22181     22179     22183     22185     22181     22179     22183     22186
     22181     22179     22225     22222     22181     22179     22225     22226
     22181     22179     22225     22227     22182     22181     22179     22183
     22182     22181     22179     22225     22183     22179     22225     22222
     22183     22179     22225     22226     22183     22179     22225     22227
     22183     22186     22187     22188     22183     22186     22187     22189
     22183     22186     22217     22215     22183     22186     22217     22218
     22183     22186     22217     22222     22184     22183     22179     22225
     22184     22183     22186     22187     22184     22183     22186     22217
     22185     22183     22179     22225     22185     22183     22186     22187
     22185     22183     22186     22217     22186     22183     22179     22225
     22186     22187     22189     22190     22186     22187     22189     22191
     22186     22187     22189     22192     22186     22217     22215     22192
     22186     22217     22215     22212     22186     22217     22215     22216
     22186     22217     22218     22219     22186     22217     22218     22220
     22186     22217     22218     22221     22186     22217     22222     22223
     22186     22217     22222     22224     22186     22217     22222     22225
     22187     22186     22217     22215     22187     22186     22217     22218
     22187     22186     22217     22222     22187     22189     22192     22193
     22187     22189     22192     22194     22187     22189     22192     22215
     22188     22187     22186     22217     22188     22187     22189     22190
     22188     22187     22189     22191     22188     22187     22189     22192
     22189     22187     22186     22217     22189     22192     22194     22195
     22189     22192     22194     22196     22189     22192     22194     22204
     22189     22192     22215     22212     22189     22192     22215     22216
     22189     22192     22215     22217     22190     22189     22192     22193
     22190     22189     22192     22194     22190     22189     22192     22215
     22191     22189     22192     22193     22191     22189     22192     22194
     22191     22189     22192     22215     22192     22194     22196     22197
     22192     22194     22196     22198     22192     22194     22196     22199
     22192     22194     22204     22202     22192     22194     22204     22205
     22192     22194     22204     22209     22192     22215     22212     22209
     22192     22215     22212     22213     22192     22215     22212     22214
     22192     22215     22217     22218     22192     22215     22217     22222
     22193     22192     22194     22195     22193     22192     22194     22196
     22193     22192     22194     22204     22193     22192     22215     22212
     22193     22192     22215     22216     22193     22192     22215     22217
     22194     22192     22215     22212     22194     22192     22215     22216
     22194     22192     22215     22217     22194     22196     22199     22200
     22194     22196     22199     22201     22194     22196     22199     22202
     22194     22204     22202     22199     22194     22204     22202     22203
     22194     22204     22202     22228     22194     22204     22205     22206
     22194     22204     22205     22207     22194     22204     22205     22208
     22194     22204     22209     22210     22194     22204     22209     22211
     22194     22204     22209     22212     22195     22194     22192     22215
     22195     22194     22196     22197     22195     22194     22196     22198
     22195     22194     22196     22199     22195     22194     22204     22202
     22195     22194     22204     22205     22195     22194     22204     22209
     22196     22194     22192     22215     22196     22194     22204     22202
     22196     22194     22204     22205     22196     22194     22204     22209
     22196     22199     22202     22203     22196     22199     22202     22204
     22196     22199     22202     22228     22197     22196     22194     22204
     22197     22196     22199     22200     22197     22196     22199     22201
     22197     22196     22199     22202     22198     22196     22194     22204
     22198     22196     22199     22200     22198     22196     22199     22201
     22198     22196     22199     22202     22199     22196     22194     22204
     22199     22202     22204     22205     22199     22202     22204     22209
     22199     22202     22228     22229     22199     22202     22228     22230
     22199     22202     22228     22234     22200     22199     22202     22203
     22200     22199     22202     22204     22200     22199     22202     22228
     22201     22199     22202     22203     22201     22199     22202     22204
     22201     22199     22202     22228     22202     22204     22205     22206
     22202     22204     22205     22207     22202     22204     22205     22208
     22202     22204     22209     22210     22202     22204     22209     22211
     22202     22204     22209     22212     22202     22228     22230     22231
     22202     22228     22230     22232     22202     22228     22230     22233
     22202     22228     22234     22235     22202     22228     22234     22236
     22202     22228     22234     22237     22203     22202     22204     22205
     22203     22202     22204     22209     22203     22202     22228     22229
     22203     22202     22228     22230     22203     22202     22228     22234
     22204     22194     22192     22215     22204     22202     22228     22229
     22204     22202     22228     22230     22204     22202     22228     22234
     22204     22209     22212     22213     22204     22209     22212     22214
     22204     22209     22212     22215     22205     22204     22202     22228
     22205     22204     22209     22210     22205     22204     22209     22211
     22205     22204     22209     22212     22206     22205     22204     22209
     22207     22205     22204     22209     22208     22205     22204     22209
     22209     22204     22202     22228     22209     22212     22215     22216
     22209     22212     22215     22217     22210     22209     22212     22213
     22210     22209     22212     22214     22210     22209     22212     22215
     22211     22209     22212     22213     22211     22209     22212     22214
     22211     22209     22212     22215     22212     22215     22217     22218
     22212     22215     22217     22222     22213     22212     22215     22216
     22213     22212     22215     22217     22214     22212     22215     22216
     22214     22212     22215     22217     22215     22217     22218     22219
     22215     22217     22218     22220     22215     22217     22218     22221
     22215     22217     22222     22223     22215     22217     22222     22224
     22215     22217     22222     22225     22216     22215     22217     22218
     22216     22215     22217     22222     22217     22222     22225     22226
     22217     22222     22225     22227     22218     22217     22222     22223
     22218     22217     22222     22224     22218     22217     22222     22225
     22219     22218     22217     22222     22220     22218     22217     22222
     22221     22218     22217     22222     22223     22222     22225     22226
     22223     22222     22225     22227     22224     22222     22225     22226
     22224     22222     22225     22227     22228     22234     22237     22238
     22228     22234     22237     22239     22228     22234     22237     22240
     22229     22228     22230     22231     22229     22228     22230     22232
     22229     22228     22230     22233     22229     22228     22234     22235
     22229     22228     22234     22236     22229     22228     22234     22237
     22230     22228     22234     22235     22230     22228     22234     22236
     22230     22228     22234     22237     22231     22230     22228     22234
     22232     22230     22228     22234     22233     22230     22228     22234
     22234     22237     22240     22241     22234     22237     22240     22242
     22234     22237     22240     22243     22235     22234     22237     22238
     22235     22234     22237     22239     22235     22234     22237     22240
     22236     22234     22237     22238     22236     22234     22237     22239
     22236     22234     22237     22240     22237     22240     22243     22244
     22237     22240     22243     22245     22237     22240     22243     22249
     22238     22237     22240     22241     22238     22237     22240     22242
     22238     22237     22240     22243     22239     22237     22240     22241
     22239     22237     22240     22242     22239     22237     22240     22243
     22240     22243     22245     22246     22240     22243     22245     22247
     22240     22243     22245     22248     22240     22243     22249     22250
     22240     22243     22249     22251     22240     22243     22249     22252
     22241     22240     22243     22244     22241     22240     22243     22245
     22241     22240     22243     22249     22242     22240     22243     22244
     22242     22240     22243     22245     22242     22240     22243     22249
     22244     22243     22245     22246     22244     22243     22245     22247
     22244     22243     22245     22248     22244     22243     22249     22250
     22244     22243     22249     22251     22244     22243     22249     22252
     22245     22243     22249     22250     22245     22243     22249     22251
     22245     22243     22249     22252     22246     22245     22243     22249
     22247     22245     22243     22249     22248     22245     22243     22249

       272 !NIMPHI: impropers
       105       104       107       106       114       113       116       115
       245       244       247       246       254       253       256       255
       376       375       378       377       385       384       387       386
       509       508       511       510       518       517       520       519
       723       722       725       724       732       731       734       733
       910       912       858       911       858       910       860       859
       983       982       985       984       992       991       994       993
      1172      1174      1120      1173      1120      1172      1122      1121
      1245      1244      1247      1246      1254      1253      1256      1255
      1434      1436      1382      1435      1382      1434      1384      1383
      1565      1567      1513      1566      1513      1565      1515      1514
      1638      1637      1640      1639      1647      1646      1649      1648
      1771      1770      1773      1772      1780      1779      1782      1781
      1911      1910      1913      1912      1920      1919      1922      1921
      2174      2176      2122      2175      2122      2174      2124      2123
      2256      2255      2258      2257      2265      2264      2267      2266
      2533      2532      2535      2534      2542      2541      2544      2543
      2722      2724      2670      2723      2670      2722      2672      2671
      2927      2929      2875      2928      2875      2927      2877      2876
      3058      3060      3006      3059      3006      3058      3008      3007
      3131      3130      3133      3132      3140      3139      3142      3141
      3320      3322      3268      3321      3268      3320      3270      3269
      3451      3453      3399      3452      3399      3451      3401      3400
      3524      3523      3526      3525      3533      3532      3535      3534
      3713      3715      3661      3714      3661      3713      3663      3662
      3844      3846      3792      3845      3792      3844      3794      3793
      3919      3918      3921      3920      3928      3927      3930      3929
      4124      4123      4126      4125      4133      4132      4135      4134
      4267      4266      4269      4268      4276      4275      4278      4277
      4398      4397      4400      4399      4407      4406      4409      4408
      4529      4528      4531      4530      4538      4537      4540      4539
      4734      4733      4736      4735      4743      4742      4745      4744
      4923      4925      4871      4924      4871      4923      4873      4872
      4996      4995      4998      4997      5005      5004      5007      5006
      5275      5274      5277      5276      5284      5283      5286      5285
      5482      5481      5484      5483      5491      5490      5493      5492
      5622      5621      5624      5623      5631      5630      5633      5632
      5749      5748      5751      5750      5758      5757      5760      5759
      5938      5940      5886      5939      5886      5938      5888      5887
      6242      6241      6244      6243      6251      6250      6253      6252
      6499      6501      6447      6500      6447      6499      6449      6448
      6581      6580      6583      6582      6590      6589      6592      6591
      7066      7068      7014      7067      7014      7066      7016      7015
      7345      7347      7293      7346      7293      7345      7295      7294
      7550      7552      7498      7551      7498      7550      7500      7499
      7706      7705      7708      7707      7715      7714      7717      7716
      7837      7836      7839      7838      7846      7845      7848      7847
      7968      7967      7970      7969      7977      7976      7979      7978
      8108      8107      8110      8109      8117      8116      8119      8118
      8246      8245      8248      8247      8255      8254      8257      8256
      8433      8435      8381      8434      8381      8433      8383      8382
      8589      8588      8591      8590      8598      8597      8600      8599
      8778      8780      8726      8779      8726      8778      8728      8727
      8853      8852      8855      8854      8862      8861      8864      8863
      8986      8985      8988      8987      8995      8994      8997      8996
      9323      9325      9271      9324      9271      9323      9273      9272
      9408      9407      9410      9409      9417      9416      9419      9418
      9539      9538      9541      9540      9548      9547      9550      9549
      9670      9669      9672      9671      9679      9678      9681      9680
      9884      9883      9886      9885      9893      9892      9895      9894
     10015     10014     10017     10016     10024     10023     10026     10025
     10146     10145     10148     10147     10155     10154     10157     10156
     10277     10276     10279     10278     10286     10285     10288     10287
     10410     10409     10412     10411     10419     10418     10421     10420
     10615     10614     10617     10616     10624     10623     10626     10625
     10748     10747     10750     10749     10757     10756     10759     10758
     10937     10939     10885     10938     10885     10937     10887     10886
     11019     11018     11021     11020     11028     11027     11030     11029
     11150     11149     11152     11151     11159     11158     11161     11160
     11281     11280     11283     11282     11290     11289     11292     11291
     11421     11420     11423     11422     11430     11429     11432     11431
     11552     11551     11554     11553     11561     11560     11563     11562
     11741     11743     11689     11742     11689     11741     11691     11690
     11816     11815     11818     11817     11825     11824     11827     11826
     11956     11955     11958     11957     11965     11964     11967     11966
     12081     12080     12083     12082     12090     12089     12092     12091
     12214     12213     12216     12215     12223     12222     12225     12224
     12495     12494     12497     12496     12504     12503     12506     12505
     12626     12625     12628     12627     12635     12634     12637     12636
     13053     13052     13055     13054     13062     13061     13064     13063
     13242     13244     13190     13243     13190     13242     13192     13191
     13373     13375     13321     13374     13321     13373     13323     13322
     13504     13506     13452     13505     13452     13504     13454     13453
     13709     13711     13657     13710     13657     13709     13659     13658
     13840     13842     13788     13841     13788     13840     13790     13789
     13971     13973     13919     13972     13919     13971     13921     13920
     14102     14104     14050     14103     14050     14102     14052     14051
     14381     14383     14329     14382     14329     14381     14331     14330
     14676     14675     14678     14677     14685     14684     14687     14686
     14883     14882     14885     14884     14892     14891     14894     14893
     15072     15074     15020     15073     15020     15072     15022     15021
     15203     15205     15151     15204     15151     15203     15153     15152
     15285     15284     15287     15286     15294     15293     15296     15295
     15472     15474     15420     15473     15420     15472     15422     15421
     15554     15553     15556     15555     15563     15562     15565     15564
     15687     15686     15689     15688     15696     15695     15698     15697
     15892     15891     15894     15893     15901     15900     15903     15902
     16106     16105     16108     16107     16115     16114     16117     16116
     16239     16238     16241     16240     16248     16247     16250     16249
     16379     16378     16381     16380     16388     16387     16390     16389
     16591     16590     16593     16592     16600     16599     16602     16601
     16780     16782     16728     16781     16728     16780     16730     16729
     16985     16987     16933     16986     16933     16985     16935     16934
     17058     17057     17060     17059     17067     17066     17069     17068
     17247     17249     17195     17248     17195     17247     17197     17196
     17452     17454     17400     17453     17400     17452     17402     17401
     17527     17526     17529     17528     17536     17535     17538     17537
     17658     17657     17660     17659     17667     17666     17669     17668
     17798     17797     17800     17799     17807     17806     17809     17808
     17923     17922     17925     17924     17932     17931     17934     17933
     18137     18136     18139     18138     18146     18145     18148     18147
     18266     18265     18268     18267     18275     18274     18277     18276
     18409     18408     18411     18410     18418     18417     18420     18419
     18552     18551     18554     18553     18561     18560     18563     18562
     18683     18682     18685     18684     18692     18691     18694     18693
     18823     18822     18825     18824     18832     18831     18834     18833
     19028     19027     19030     19029     19037     19036     19039     19038
     19217     19219     19165     19218     19165     19217     19167     19166
     19364     19363     19366     19365     19373     19372     19375     19374
     19495     19494     19497     19496     19504     19503     19506     19505
     19635     19634     19637     19636     19644     19643     19646     19645
     19773     19772     19775     19774     19782     19781     19784     19783
     19913     19912     19915     19914     19922     19921     19924     19923
     20190     20189     20192     20191     20199     20198     20201     20200
     20453     20455     20401     20454     20401     20453     20403     20402
     20584     20586     20532     20585     20532     20584     20534     20533
     20805     20804     20807     20806     20814     20813     20816     20815
     20945     20944     20947     20946     20954     20953     20956     20955
     21132     21134     21080     21133     21080     21132     21082     21081
     21281     21280     21283     21282     21290     21289     21292     21291
     21414     21413     21416     21415     21423     21422     21425     21424
     21545     21544     21547     21546     21554     21553     21556     21555
     21734     21736     21682     21735     21682     21734     21684     21683
     21865     21867     21813     21866     21813     21865     21815     21814
     21938     21937     21940     21939     21947     21946     21949     21948
     22069     22068     22071     22070     22078     22077     22080     22079

         0 !NDON: donors


         0 !NACC: acceptors


         0 !NNB

         0         0         0         0         0         0         0         0
         0         0         0         0         0         0         0         0
         0         0         0         0         0         0         0         0
         0         0         0         0         0         0         0         0
         0         0         0         0         0         0         0         0
         0         0         0         0         0         0         0         0
         0         0         0         0         0         0         0         0
         0         0         0         0         0         0         0         0
         0         0         0         0         0         0         0         0
         0         0         0         0         0         0         0         0
         0         0         0         0         0         0         0         0
         0         0         0         0         0         0         0         0
         0         0         0         0         0         0         0         0
         0         0         0         0         0         0         0         0
         0         0         0         0         0         0         0         0
         0         0         0         0         0         0         0         0
         0         0         0         0         0         0         0         0
         0         0         0         0         0         0         0         0
         0         0         0         0         0         0         0         0
         0         0         0         0         0         0         0         0
         0         0         0         0         0         0         0         0
         0         0         0         0         0         0         0         0
         0         0         0         0         0         0         0         0
         0         0         0         0         0         0         0         0
         0         0         0         0         0         0         0         0
         0         0         0         0         0         0         0         0
         0         0         0         0         0         0         0         0
         0         0         0         0         0         0         0         0
         0         0         0         0         0         0         0         0
         0         0         0         0         0         0         0         0
         0         0         0         0         0         0         0         0
         0         0         0         0         0         0         0         0
         0         0         0         0         0         0         0         0
         0         0         0         0         0         0         0         0
         0         0         0         0         0         0         0         0
         0         0         0         0         0         0         0         0
         0         0         0         0         0         0         0         0
         0         0         0         0         0         0         0         0
         0         0         0         0         0         0         0         0
         0         0         0         0         0         0         0         0
         0         0         0         0         0         0         0         0
         0         0         0         0         0         0         0         0
         0         0         0         0         0         0         0         0
         0         0         0         0         0         0         0         0
         0         0         0         0         0         0         0         0
         0         0         0         0         0         0         0         0
         0         0         0         0         0         0         0         0
         0         0         0         0         0         0         0         0
         0         0         0         0         0         0         0         0
         0         0         0         0         0         0         0         0
         0         0         0         0         0         0         0         0
         0         0         0         0         0         0         0         0
         0         0         0         0         0         0         0         0
         0         0         0         0         0         0         0         0
         0         0         0         0         0         0         0         0
         0         0         0         0         0         0         0         0
         0         0         0         0         0         0         0         0
         0         0         0         0         0         0         0         0
         0         0         0         0         0         0         0         0
         0         0         0         0         0         0         0         0
         0         0         0         0         0         0         0         0
         0         0         0         0         0         0         0         0
         0         0         0         0         0         0         0         0
         0         0         0         0         0         0         0         0
         0         0         0         0         0         0         0         0
         0         0         0         0         0         0         0         0
         0         0         0         0         0         0         0         0
         0         0         0         0         0         0         0         0
         0         0         0         0         0         0         0         0
         0         0         0         0         0         0         0         0
         0         0         0         0         0         0         0         0
         0         0         0         0         0         0         0         0
         0         0         0         0         0         0         0         0
         0         0         0         0         0         0         0         0
         0         0         0         0         0         0         0         0
         0         0         0         0         0         0         0         0
         0         0         0         0         0         0         0         0
         0         0         0         0         0         0         0         0
         0         0         0         0         0         0         0         0
         0         0         0         0         0         0         0         0
         0         0         0         0         0         0         0         0
         0         0         0         0         0         0         0         0
         0         0         0         0         0         0         0         0
         0         0         0         0         0         0         0         0
         0         0         0         0         0         0         0         0
         0         0         0         0         0         0         0         0
         0         0         0         0         0         0         0         0
         0         0         0         0         0         0         0         0
         0         0         0         0         0         0         0         0
         0         0         0         0         0         0         0         0
         0         0         0         0         0         0         0         0
         0         0         0         0         0         0         0         0
         0         0         0         0         0         0         0         0
         0         0         0         0         0         0         0         0
         0         0         0         0         0         0         0         0
         0         0         0         0         0         0         0         0
         0         0         0         0         0         0         0         0
         0         0         0         0         0         0         0         0
         0         0         0         0         0         0         0         0
         0         0         0         0         0         0         0         0
         0         0         0         0         0         0         0         0
         0         0         0         0         0         0         0         0
         0         0         0         0         0         0         0         0
         0         0         0         0         0         0         0         0
         0         0         0         0         0         0         0         0
         0         0         0         0         0         0         0         0
         0         0         0         0         0         0         0         0
         0         0         0         0         0         0         0         0
         0         0         0         0         0         0         0         0
         0         0         0         0         0         0         0         0
         0         0         0         0         0         0         0         0
         0         0         0         0         0         0         0         0
         0         0         0         0         0         0         0         0
         0         0         0         0         0         0         0         0
         0         0         0         0         0         0         0         0
         0         0         0         0         0         0         0         0
         0         0         0         0         0         0         0         0
         0         0         0         0         0         0         0         0
         0         0         0         0         0         0         0         0
         0         0         0         0         0         0         0         0
         0         0         0         0         0         0         0         0
         0         0         0         0         0         0         0         0
         0         0         0         0         0         0         0         0
         0         0         0         0         0         0         0         0
         0         0         0         0         0         0         0         0
         0         0         0         0         0         0         0         0
         0         0         0         0         0         0         0         0
         0         0         0         0         0         0         0         0
         0         0         0         0         0         0         0         0
         0         0         0         0         0         0         0         0
         0         0         0         0         0         0         0         0
         0         0         0         0         0         0         0         0
         0         0         0         0         0         0         0         0
         0         0         0         0         0         0         0         0
         0         0         0         0         0         0         0         0
         0         0         0         0         0         0         0         0
         0         0         0         0         0         0         0         0
         0         0         0         0         0         0         0         0
         0         0         0         0         0         0         0         0
         0         0         0         0         0         0         0         0
         0         0         0         0         0         0         0         0
         0         0         0         0         0         0         0         0
         0         0         0         0         0         0         0         0
         0         0         0         0         0         0         0         0
         0         0         0         0         0         0         0         0
         0         0         0         0         0         0         0         0
         0         0         0         0         0         0         0         0
         0         0         0         0         0         0         0         0
         0         0         0         0         0         0         0         0
         0         0         0         0         0         0         0         0
         0         0         0         0         0         0         0         0
         0         0         0         0         0         0         0         0
         0         0         0         0         0         0         0         0
         0         0         0         0         0         0         0         0
         0         0         0         0         0         0         0         0
         0         0         0         0         0         0         0         0
         0         0         0         0         0         0         0         0
         0         0         0         0         0         0         0         0
         0         0         0         0         0         0         0         0
         0         0         0         0         0         0         0         0
         0         0         0         0         0         0         0         0
         0         0         0         0         0         0         0         0
         0         0         0         0         0         0         0         0
         0         0         0         0         0         0         0         0
         0         0         0         0         0         0         0         0
         0         0         0         0         0         0         0         0
         0         0         0         0         0         0         0         0
         0         0         0         0         0         0         0         0
         0         0         0         0         0         0         0         0
         0         0         0         0         0         0         0         0
         0         0         0         0         0         0         0         0
         0         0         0         0         0         0         0         0
         0         0         0         0         0         0         0         0
         0         0         0         0         0         0         0         0
         0         0         0         0         0         0         0         0
         0         0         0         0         0         0         0         0
         0         0         0         0         0         0         0         0
         0         0         0         0         0         0         0         0
         0         0         0         0         0         0         0         0
         0         0         0         0         0         0         0         0
         0         0         0         0         0         0         0         0
         0         0         0         0         0         0         0         0
         0         0         0         0         0         0         0         0
         0         0         0         0         0         0         0         0
         0         0         0         0         0         0         0         0
         0         0         0         0         0         0         0         0
         0         0         0         0         0         0         0         0
         0         0         0         0         0         0         0         0
         0         0         0         0         0         0         0         0
         0         0         0         0         0         0         0         0
         0         0         0         0         0         0         0         0
         0         0         0         0         0         0         0         0
         0         0         0         0         0         0         0         0
         0         0         0         0         0         0         0         0
         0         0         0         0         0         0         0         0
         0         0         0         0         0         0         0         0
         0         0         0         0         0         0         0         0
         0         0         0         0         0         0         0         0
         0         0         0         0         0         0         0         0
         0         0         0         0         0         0         0         0
         0         0         0         0         0         0         0         0
         0         0         0         0         0         0         0         0
         0         0         0         0         0         0         0         0
         0         0         0         0         0         0         0         0
         0         0         0         0         0         0         0         0
         0         0         0         0         0         0         0         0
         0         0         0         0         0         0         0         0
         0         0         0         0         0         0         0         0
         0         0         0         0         0         0         0         0
         0         0         0         0         0         0         0         0
         0         0         0         0         0         0         0         0
         0         0         0         0         0         0         0         0
         0         0         0         0         0         0         0         0
         0         0         0         0         0         0         0         0
         0         0         0         0         0         0         0         0
         0         0         0         0         0         0         0         0
         0         0         0         0         0         0         0         0
         0         0         0         0         0         0         0         0
         0         0         0         0         0         0         0         0
         0         0         0         0         0         0         0         0
         0         0         0         0         0         0         0         0
         0         0         0         0         0         0         0         0
         0         0         0         0         0         0         0         0
         0         0         0         0         0         0         0         0
         0         0         0         0         0         0         0         0
         0         0         0         0         0         0         0         0
         0         0         0         0         0         0         0         0
         0         0         0         0         0         0         0         0
         0         0         0         0         0         0         0         0
         0         0         0         0         0         0         0         0
         0         0         0         0         0         0         0         0
         0         0         0         0         0         0         0         0
         0         0         0         0         0         0         0         0
         0         0         0         0         0         0         0         0
         0         0         0         0         0         0         0         0
         0         0         0         0         0         0         0         0
         0         0         0         0         0         0         0         0
         0         0         0         0         0         0         0         0
         0         0         0         0         0         0         0         0
         0         0         0         0         0         0         0         0
         0         0         0         0         0         0         0         0
         0         0         0         0         0         0         0         0
         0         0         0         0         0         0         0         0
         0         0         0         0         0         0         0         0
         0         0         0         0         0         0         0         0
         0         0         0         0         0         0         0         0
         0         0         0         0         0         0         0         0
         0         0         0         0         0         0         0         0
         0         0         0         0         0         0         0         0
         0         0         0         0         0         0         0         0
         0         0         0         0         0         0         0         0
         0         0         0         0         0         0         0         0
         0         0         0         0         0         0         0         0
         0         0         0         0         0         0         0         0
         0         0         0         0         0         0         0         0
         0         0         0         0         0         0         0         0
         0         0         0         0         0         0         0         0
         0         0         0         0         0         0         0         0
         0         0         0         0         0         0         0         0
         0         0         0         0         0         0         0         0
         0         0         0         0         0         0         0         0
         0         0         0         0         0         0         0         0
         0         0         0         0         0         0         0         0
         0         0         0         0         0         0         0         0
         0         0         0         0         0         0         0         0
         0         0         0         0         0         0         0         0
         0         0         0         0         0         0         0         0
         0         0         0         0         0         0         0         0
         0         0         0         0         0         0         0         0
         0         0         0         0         0         0         0         0
         0         0         0         0         0         0         0         0
         0         0         0         0         0         0         0         0
         0         0         0         0         0         0         0         0
         0         0         0         0         0         0         0         0
         0         0         0         0         0         0         0         0
         0         0         0         0         0         0         0         0
         0         0         0         0         0         0         0         0
         0         0         0         0         0         0         0         0
         0         0         0         0         0         0         0         0
         0         0         0         0         0         0         0         0
         0         0         0         0         0         0         0         0
         0         0         0         0         0         0         0         0
         0         0         0         0         0         0         0         0
         0         0         0         0         0         0         0         0
         0         0         0         0         0         0         0         0
         0         0         0         0         0         0         0         0
         0         0         0         0         0         0         0         0
         0         0         0         0         0         0         0         0
         0         0         0         0         0         0         0         0
         0         0         0         0         0         0         0         0
         0         0         0         0         0         0         0         0
         0         0         0         0         0         0         0         0
         0         0         0         0         0         0         0         0
         0         0         0         0         0         0         0         0
         0         0         0         0         0         0         0         0
         0         0         0         0         0         0         0         0
         0         0         0         0         0         0         0         0
         0         0         0         0         0         0         0         0
         0         0         0         0         0         0         0         0
         0         0         0         0         0         0         0         0
         0         0         0         0         0         0         0         0
         0         0         0         0         0         0         0         0
         0         0         0         0         0         0         0         0
         0         0         0         0         0         0         0         0
         0         0         0         0         0         0         0         0
         0         0         0         0         0         0         0         0
         0         0         0         0         0         0         0         0
         0         0         0         0         0         0         0         0
         0         0         0         0         0         0         0         0
         0         0         0         0         0         0         0         0
         0         0         0         0         0         0         0         0
         0         0         0         0         0         0         0         0
         0         0         0         0         0         0         0         0
         0         0         0         0         0         0         0         0
         0         0         0         0         0         0         0         0
         0         0         0         0         0         0         0         0
         0         0         0         0         0         0         0         0
         0         0         0         0         0         0         0         0
         0         0         0         0         0         0         0         0
         0         0         0         0         0         0         0         0
         0         0         0         0         0         0         0         0
         0         0         0         0         0         0         0         0
         0         0         0         0         0         0         0         0
         0         0         0         0         0         0         0         0
         0         0         0         0         0         0         0         0
         0         0         0         0         0         0         0         0
         0         0         0         0         0         0         0         0
         0         0         0         0         0         0         0         0
         0         0         0         0         0         0         0         0
         0         0         0         0         0         0         0         0
         0         0         0         0         0         0         0         0
         0         0         0         0         0         0         0         0
         0         0         0         0         0         0         0         0
         0         0         0         0         0         0         0         0
         0         0         0         0         0         0         0         0
         0         0         0         0         0         0         0         0
         0         0         0         0         0         0         0         0
         0         0         0         0         0         0         0         0
         0         0         0         0         0         0         0         0
         0         0         0         0         0         0         0         0
         0         0         0         0         0         0         0         0
         0         0         0         0         0         0         0         0
         0         0         0         0         0         0         0         0
         0         0         0         0         0         0         0         0
         0         0         0         0         0         0         0         0
         0         0         0         0         0         0         0         0
         0         0         0         0         0         0         0         0
         0         0         0         0         0         0         0         0
         0         0         0         0         0         0         0         0
         0         0         0         0         0         0         0         0
         0         0         0         0         0         0         0         0
         0         0         0         0         0         0         0         0
         0         0         0         0         0         0         0         0
         0         0         0         0         0         0         0         0
         0         0         0         0         0         0         0         0
         0         0         0         0         0         0         0         0
         0         0         0         0         0         0         0         0
         0         0         0         0         0         0         0         0
         0         0         0         0         0         0         0         0
         0         0         0         0         0         0         0         0
         0         0         0         0         0         0         0         0
         0         0         0         0         0         0         0         0
         0         0         0         0         0         0         0         0
         0         0         0         0         0         0         0         0
         0         0         0         0         0         0         0         0
         0         0         0         0         0         0         0         0
         0         0         0         0         0         0         0         0
         0         0         0         0         0         0         0         0
         0         0         0         0         0         0         0         0
         0         0         0         0         0         0         0         0
         0         0         0         0         0         0         0         0
         0         0         0         0         0         0         0         0
         0         0         0         0         0         0         0         0
         0         0         0         0         0         0         0         0
         0         0         0         0         0         0         0         0
         0         0         0         0         0         0         0         0
         0         0         0         0         0         0         0         0
         0         0         0         0         0         0         0         0
         0         0         0         0         0         0         0         0
         0         0         0         0         0         0         0         0
         0         0         0         0         0         0         0         0
         0         0         0         0         0         0         0         0
         0         0         0         0         0         0         0         0
         0         0         0         0         0         0         0         0
         0         0         0         0         0         0         0         0
         0         0         0         0         0         0         0         0
         0         0         0         0         0         0         0         0
         0         0         0         0         0         0         0         0
         0         0         0         0         0         0         0         0
         0         0         0         0         0         0         0         0
         0         0         0         0         0         0         0         0
         0         0         0         0         0         0         0         0
         0         0         0         0         0         0         0         0
         0         0         0         0         0         0         0         0
         0         0         0         0         0         0         0         0
         0         0         0         0         0         0         0         0
         0         0         0         0         0         0         0         0
         0         0         0         0         0         0         0         0
         0         0         0         0         0         0         0         0
         0         0         0         0         0         0         0         0
         0         0         0         0         0         0         0         0
         0         0         0         0         0         0         0         0
         0         0         0         0         0         0         0         0
         0         0         0         0         0         0         0         0
         0         0         0         0         0         0         0         0
         0         0         0         0         0         0         0         0
         0         0         0         0         0         0         0         0
         0         0         0         0         0         0         0         0
         0         0         0         0         0         0         0         0
         0         0         0         0         0         0         0         0
         0         0         0         0         0         0         0         0
         0         0         0         0         0         0         0         0
         0         0         0         0         0         0         0         0
         0         0         0         0         0         0         0         0
         0         0         0         0         0         0         0         0
         0         0         0         0         0         0         0         0
         0         0         0         0         0         0         0         0
         0         0         0         0         0         0         0         0
         0         0         0         0         0         0         0         0
         0         0         0         0         0         0         0         0
         0         0         0         0         0         0         0         0
         0         0         0         0         0         0         0         0
         0         0         0         0         0         0         0         0
         0         0         0         0         0         0         0         0
         0         0         0         0         0         0         0         0
         0         0         0         0         0         0         0         0
         0         0         0         0         0         0         0         0
         0         0         0         0         0         0         0         0
         0         0         0         0         0         0         0         0
         0         0         0         0         0         0         0         0
         0         0         0         0         0         0         0         0
         0         0         0         0         0         0         0         0
         0         0         0         0         0         0         0         0
         0         0         0         0         0         0         0         0
         0         0         0         0         0         0         0         0
         0         0         0         0         0         0         0         0
         0         0         0         0         0         0         0         0
         0         0         0         0         0         0         0         0
         0         0         0         0         0         0         0         0
         0         0         0         0         0         0         0         0
         0         0         0         0         0         0         0         0
         0         0         0         0         0         0         0         0
         0         0         0         0         0         0         0         0
         0         0         0         0         0         0         0         0
         0         0         0         0         0         0         0         0
         0         0         0         0         0         0         0         0
         0         0         0         0         0         0         0         0
         0         0         0         0         0         0         0         0
         0         0         0         0         0         0         0         0
         0         0         0         0         0         0         0         0
         0         0         0         0         0         0         0         0
         0         0         0         0         0         0         0         0
         0         0         0         0         0         0         0         0
         0         0         0         0         0         0         0         0
         0         0         0         0         0         0         0         0
         0         0         0         0         0         0         0         0
         0         0         0         0         0         0         0         0
         0         0         0         0         0         0         0         0
         0         0         0         0         0         0         0         0
         0         0         0         0         0         0         0         0
         0         0         0         0         0         0         0         0
         0         0         0         0         0         0         0         0
         0         0         0         0         0         0         0         0
         0         0         0         0         0         0         0         0
         0         0         0         0         0         0         0         0
         0         0         0         0         0         0         0         0
         0         0         0         0         0         0         0         0
         0         0         0         0         0         0         0         0
         0         0         0         0         0         0         0         0
         0         0         0         0         0         0         0         0
         0         0         0         0         0         0         0         0
         0         0         0         0         0         0         0         0
         0         0         0         0         0         0         0         0
         0         0         0         0         0         0         0         0
         0         0         0         0         0         0         0         0
         0         0         0         0         0         0         0         0
         0         0         0         0         0         0         0         0
         0         0         0         0         0         0         0         0
         0         0         0         0         0         0         0         0
         0         0         0         0         0         0         0         0
         0         0         0         0         0         0         0         0
         0         0         0         0         0         0         0         0
         0         0         0         0         0         0         0         0
         0         0         0         0         0         0         0         0
         0         0         0         0         0         0         0         0
         0         0         0         0         0         0         0         0
         0         0         0         0         0         0         0         0
         0         0         0         0         0         0         0         0
         0         0         0         0         0         0         0         0
         0         0         0         0         0         0         0         0
         0         0         0         0         0         0         0         0
         0         0         0         0         0         0         0         0
         0         0         0         0         0         0         0         0
         0         0         0         0         0         0         0         0
         0         0         0         0         0         0         0         0
         0         0         0         0         0         0         0         0
         0         0         0         0         0         0         0         0
         0         0         0         0         0         0         0         0
         0         0         0         0         0         0         0         0
         0         0         0         0         0         0         0         0
         0         0         0         0         0         0         0         0
         0         0         0         0         0         0         0         0
         0         0         0         0         0         0         0         0
         0         0         0         0         0         0         0         0
         0         0         0         0         0         0         0         0
         0         0         0         0         0         0         0         0
         0         0         0         0         0         0         0         0
         0         0         0         0         0         0         0         0
         0         0         0         0         0         0         0         0
         0         0         0         0         0         0         0         0
         0         0         0         0         0         0         0         0
         0         0         0         0         0         0         0         0
         0         0         0         0         0         0         0         0
         0         0         0         0         0         0         0         0
         0         0         0         0         0         0         0         0
         0         0         0         0         0         0         0         0
         0         0         0         0         0         0         0         0
         0         0         0         0         0         0         0         0
         0         0         0         0         0         0         0         0
         0         0         0         0         0         0         0         0
         0         0         0         0         0         0         0         0
         0         0         0         0         0         0         0         0
         0         0         0         0         0         0         0         0
         0         0         0         0         0         0         0         0
         0         0         0         0         0         0         0         0
         0         0         0         0         0         0         0         0
         0         0         0         0         0         0         0         0
         0         0         0         0         0         0         0         0
         0         0         0         0         0         0         0         0
         0         0         0         0         0         0         0         0
         0         0         0         0         0         0         0         0
         0         0         0         0         0         0         0         0
         0         0         0         0         0         0         0         0
         0         0         0         0         0         0         0         0
         0         0         0         0         0         0         0         0
         0         0         0         0         0         0         0         0
         0         0         0         0         0         0         0         0
         0         0         0         0         0         0         0         0
         0         0         0         0         0         0         0         0
         0         0         0         0         0         0         0         0
         0         0         0         0         0         0         0         0
         0         0         0         0         0         0         0         0
         0         0         0         0         0         0         0         0
         0         0         0         0         0         0         0         0
         0         0         0         0         0         0         0         0
         0         0         0         0         0         0         0         0
         0         0         0         0         0         0         0         0
         0         0         0         0         0         0         0         0
         0         0         0         0         0         0         0         0
         0         0         0         0         0         0         0         0
         0         0         0         0         0         0         0         0
         0         0         0         0         0         0         0         0
         0         0         0         0         0         0         0         0
         0         0         0         0         0         0         0         0
         0         0         0         0         0         0         0         0
         0         0         0         0         0         0         0         0
         0         0         0         0         0         0         0         0
         0         0         0         0         0         0         0         0
         0         0         0         0         0         0         0         0
         0         0         0         0         0         0         0         0
         0         0         0         0         0         0         0         0
         0         0         0         0         0         0         0         0
         0         0         0         0         0         0         0         0
         0         0         0         0         0         0         0         0
         0         0         0         0         0         0         0         0
         0         0         0         0         0         0         0         0
         0         0         0         0         0         0         0         0
         0         0         0         0         0         0         0         0
         0         0         0         0         0         0         0         0
         0         0         0         0         0         0         0         0
         0         0         0         0         0         0         0         0
         0         0         0         0         0         0         0         0
         0         0         0         0         0         0         0         0
         0         0         0         0         0         0         0         0
         0         0         0         0         0         0         0         0
         0         0         0         0         0         0         0         0
         0         0         0         0         0         0         0         0
         0         0         0         0         0         0         0         0
         0         0         0         0         0         0         0         0
         0         0         0         0         0         0         0         0
         0         0         0         0         0         0         0         0
         0         0         0         0         0         0         0         0
         0         0         0         0         0         0         0         0
         0         0         0         0         0         0         0         0
         0         0         0         0         0         0         0         0
         0         0         0         0         0         0         0         0
         0         0         0         0         0         0         0         0
         0         0         0         0         0         0         0         0
         0         0         0         0         0         0         0         0
         0         0         0         0         0         0         0         0
         0         0         0         0         0         0         0         0
         0         0         0         0         0         0         0         0
         0         0         0         0         0         0         0         0
         0         0         0         0         0         0         0         0
         0         0         0         0         0         0         0         0
         0         0         0         0         0         0         0         0
         0         0         0         0         0         0         0         0
         0         0         0         0         0         0         0         0
         0         0         0         0         0         0         0         0
         0         0         0         0         0         0         0         0
         0         0         0         0         0         0         0         0
         0         0         0         0         0         0         0         0
         0         0         0         0         0         0         0         0
         0         0         0         0         0         0         0         0
         0         0         0         0         0         0         0         0
         0         0         0         0         0         0         0         0
         0         0         0         0         0         0         0         0
         0         0         0         0         0         0         0         0
         0         0         0         0         0         0         0         0
         0         0         0         0         0         0         0         0
         0         0         0         0         0         0         0         0
         0         0         0         0         0         0         0         0
         0         0         0         0         0         0         0         0
         0         0         0         0         0         0         0         0
         0         0         0         0         0         0         0         0
         0         0         0         0         0         0         0         0
         0         0         0         0         0         0         0         0
         0         0         0         0         0         0         0         0
         0         0         0         0         0         0         0         0
         0         0         0         0         0         0         0         0
         0         0         0         0         0         0         0         0
         0         0         0         0         0         0         0         0
         0         0         0         0         0         0         0         0
         0         0         0         0         0         0         0         0
         0         0         0         0         0         0         0         0
         0         0         0         0         0         0         0         0
         0         0         0         0         0         0         0         0
         0         0         0         0         0         0         0         0
         0         0         0         0         0         0         0         0
         0         0         0         0         0         0         0         0
         0         0         0         0         0         0         0         0
         0         0         0         0         0         0         0         0
         0         0         0         0         0         0         0         0
         0         0         0         0         0         0         0         0
         0         0         0         0         0         0         0         0
         0         0         0         0         0         0         0         0
         0         0         0         0         0         0         0         0
         0         0         0         0         0         0         0         0
         0         0         0         0         0         0         0         0
         0         0         0         0         0         0         0         0
         0         0         0         0         0         0         0         0
         0         0         0         0         0         0         0         0
         0         0         0         0         0         0         0         0
         0         0         0         0         0         0         0         0
         0         0         0         0         0         0         0         0
         0         0         0         0         0         0         0         0
         0         0         0         0         0         0         0         0
         0         0         0         0         0         0         0         0
         0         0         0         0         0         0         0         0
         0         0         0         0         0         0         0         0
         0         0         0         0         0         0         0         0
         0         0         0         0         0         0         0         0
         0         0         0         0         0         0         0         0
         0         0         0         0         0         0         0         0
         0         0         0         0         0         0         0         0
         0         0         0         0         0         0         0         0
         0         0         0         0         0         0         0         0
         0         0         0         0         0         0         0         0
         0         0         0         0         0         0         0         0
         0         0         0         0         0         0         0         0
         0         0         0         0         0         0         0         0
         0         0         0         0         0         0         0         0
         0         0         0         0         0         0         0         0
         0         0         0         0         0         0         0         0
         0         0         0         0         0         0         0         0
         0         0         0         0         0         0         0         0
         0         0         0         0         0         0         0         0
         0         0         0         0         0         0         0         0
         0         0         0         0         0         0         0         0
         0         0         0         0         0         0         0         0
         0         0         0         0         0         0         0         0
         0         0         0         0         0         0         0         0
         0         0         0         0         0         0         0         0
         0         0         0         0         0         0         0         0
         0         0         0         0         0         0         0         0
         0         0         0         0         0         0         0         0
         0         0         0         0         0         0         0         0
         0         0         0         0         0         0         0         0
         0         0         0         0         0         0         0         0
         0         0         0         0         0         0         0         0
         0         0         0         0         0         0         0         0
         0         0         0         0         0         0         0         0
         0         0         0         0         0         0         0         0
         0         0         0         0         0         0         0         0
         0         0         0         0         0         0         0         0
         0         0         0         0         0         0         0         0
         0         0         0         0         0         0         0         0
         0         0         0         0         0         0         0         0
         0         0         0         0         0         0         0         0
         0         0         0         0         0         0         0         0
         0         0         0         0         0         0         0         0
         0         0         0         0         0         0         0         0
         0         0         0         0         0         0         0         0
         0         0         0         0         0         0         0         0
         0         0         0         0         0         0         0         0
         0         0         0         0         0         0         0         0
         0         0         0         0         0         0         0         0
         0         0         0         0         0         0         0         0
         0         0         0         0         0         0         0         0
         0         0         0         0         0         0         0         0
         0         0         0         0         0         0         0         0
         0         0         0         0         0         0         0         0
         0         0         0         0         0         0         0         0
         0         0         0         0         0         0         0         0
         0         0         0         0         0         0         0         0
         0         0         0         0         0         0         0         0
         0         0         0         0         0         0         0         0
         0         0         0         0         0         0         0         0
         0         0         0         0         0         0         0         0
         0         0         0         0         0         0         0         0
         0         0         0         0         0         0         0         0
         0         0         0         0         0         0         0         0
         0         0         0         0         0         0         0         0
         0         0         0         0         0         0         0         0
         0         0         0         0         0         0         0         0
         0         0         0         0         0         0         0         0
         0         0         0         0         0         0         0         0
         0         0         0         0         0         0         0         0
         0         0         0         0         0         0         0         0
         0         0         0         0         0         0         0         0
         0         0         0         0         0         0         0         0
         0         0         0         0         0         0         0         0
         0         0         0         0         0         0         0         0
         0         0         0         0         0         0         0         0
         0         0         0         0         0         0         0         0
         0         0         0         0         0         0         0         0
         0         0         0         0         0         0         0         0
         0         0         0         0         0         0         0         0
         0         0         0         0         0         0         0         0
         0         0         0         0         0         0         0         0
         0         0         0         0         0         0         0         0
         0         0         0         0         0         0         0         0
         0         0         0         0         0         0         0         0
         0         0         0         0         0         0         0         0
         0         0         0         0         0         0         0         0
         0         0         0         0         0         0         0         0
         0         0         0         0         0         0         0         0
         0         0         0         0         0         0         0         0
         0         0         0         0         0         0         0         0
         0         0         0         0         0         0         0         0
         0         0         0         0         0         0         0         0
         0         0         0         0         0         0         0         0
         0         0         0         0         0         0         0         0
         0         0         0         0         0         0         0         0
         0         0         0         0         0         0         0         0
         0         0         0         0         0         0         0         0
         0         0         0         0         0         0         0         0
         0         0         0         0         0         0         0         0
         0         0         0         0         0         0         0         0
         0         0         0         0         0         0         0         0
         0         0         0         0         0         0         0         0
         0         0         0         0         0         0         0         0
         0         0         0         0         0         0         0         0
         0         0         0         0         0         0         0         0
         0         0         0         0         0         0         0         0
         0         0         0         0         0         0         0         0
         0         0         0         0         0         0         0         0
         0         0         0         0         0         0         0         0
         0         0         0         0         0         0         0         0
         0         0         0         0         0         0         0         0
         0         0         0         0         0         0         0         0
         0         0         0         0         0         0         0         0
         0         0         0         0         0         0         0         0
         0         0         0         0         0         0         0         0
         0         0         0         0         0         0         0         0
         0         0         0         0         0         0         0         0
         0         0         0         0         0         0         0         0
         0         0         0         0         0         0         0         0
         0         0         0         0         0         0         0         0
         0         0         0         0         0         0         0         0
         0         0         0         0         0         0         0         0
         0         0         0         0         0         0         0         0
         0         0         0         0         0         0         0         0
         0         0         0         0         0         0         0         0
         0         0         0         0         0         0         0         0
         0         0         0         0         0         0         0         0
         0         0         0         0         0         0         0         0
         0         0         0         0         0         0         0         0
         0         0         0         0         0         0         0         0
         0         0         0         0         0         0         0         0
         0         0         0         0         0         0         0         0
         0         0         0         0         0         0         0         0
         0         0         0         0         0         0         0         0
         0         0         0         0         0         0         0         0
         0         0         0         0         0         0         0         0
         0         0         0         0         0         0         0         0
         0         0         0         0         0         0         0         0
         0         0         0         0         0         0         0         0
         0         0         0         0         0         0         0         0
         0         0         0         0         0         0         0         0
         0         0         0         0         0         0         0         0
         0         0         0         0         0         0         0         0
         0         0         0         0         0         0         0         0
         0         0         0         0         0         0         0         0
         0         0         0         0         0         0         0         0
         0         0         0         0         0         0         0         0
         0         0         0         0         0         0         0         0
         0         0         0         0         0         0         0         0
         0         0         0         0         0         0         0         0
         0         0         0         0         0         0         0         0
         0         0         0         0         0         0         0         0
         0         0         0         0         0         0         0         0
         0         0         0         0         0         0         0         0
         0         0         0         0         0         0         0         0
         0         0         0         0         0         0         0         0
         0         0         0         0         0         0         0         0
         0         0         0         0         0         0         0         0
         0         0         0         0         0         0         0         0
         0         0         0         0         0         0         0         0
         0         0         0         0         0         0         0         0
         0         0         0         0         0         0         0         0
         0         0         0         0         0         0         0         0
         0         0         0         0         0         0         0         0
         0         0         0         0         0         0         0         0
         0         0         0         0         0         0         0         0
         0         0         0         0         0         0         0         0
         0         0         0         0         0         0         0         0
         0         0         0         0         0         0         0         0
         0         0         0         0         0         0         0         0
         0         0         0         0         0         0         0         0
         0         0         0         0         0         0         0         0
         0         0         0         0         0         0         0         0
         0         0         0         0         0         0         0         0
         0         0         0         0         0         0         0         0
         0         0         0         0         0         0         0         0
         0         0         0         0         0         0         0         0
         0         0         0         0         0         0         0         0
         0         0         0         0         0         0         0         0
         0         0         0         0         0         0         0         0
         0         0         0         0         0         0         0         0
         0         0         0         0         0         0         0         0
         0         0         0         0         0         0         0         0
         0         0         0         0         0         0         0         0
         0         0         0         0         0         0         0         0
         0         0         0         0         0         0         0         0
         0         0         0         0         0         0         0         0
         0         0         0         0         0         0         0         0
         0         0         0         0         0         0         0         0
         0         0         0         0         0         0         0         0
         0         0         0         0         0         0         0         0
         0         0         0         0         0         0         0         0
         0         0         0         0         0         0         0         0
         0         0         0         0         0         0         0         0
         0         0         0         0         0         0         0         0
         0         0         0         0         0         0         0         0
         0         0         0         0         0         0         0         0
         0         0         0         0         0         0         0         0
         0         0         0         0         0         0         0         0
         0         0         0         0         0         0         0         0
         0         0         0         0         0         0         0         0
         0         0         0         0         0         0         0         0
         0         0         0         0         0         0         0         0
         0         0         0         0         0         0         0         0
         0         0         0         0         0         0         0         0
         0         0         0         0         0         0         0         0
         0         0         0         0         0         0         0         0
         0         0         0         0         0         0         0         0
         0         0         0         0         0         0         0         0
         0         0         0         0         0         0         0         0
         0         0         0         0         0         0         0         0
         0         0         0         0         0         0         0         0
         0         0         0         0         0         0         0         0
         0         0         0         0         0         0         0         0
         0         0         0         0         0         0         0         0
         0         0         0         0         0         0         0         0
         0         0         0         0         0         0         0         0
         0         0         0         0         0         0         0         0
         0         0         0         0         0         0         0         0
         0         0         0         0         0         0         0         0
         0         0         0         0         0         0         0         0
         0         0         0         0         0         0         0         0
         0         0         0         0         0         0         0         0
         0         0         0         0         0         0         0         0
         0         0         0         0         0         0         0         0
         0         0         0         0         0         0         0         0
         0         0         0         0         0         0         0         0
         0         0         0         0         0         0         0         0
         0         0         0         0         0         0         0         0
         0         0         0         0         0         0         0         0
         0         0         0         0         0         0         0         0
         0         0         0         0         0         0         0         0
         0         0         0         0         0         0         0         0
         0         0         0         0         0         0         0         0
         0         0         0         0         0         0         0         0
         0         0         0         0         0         0         0         0
         0         0         0         0         0         0         0         0
         0         0         0         0         0         0         0         0
         0         0         0         0         0         0         0         0
         0         0         0         0         0         0         0         0
         0         0         0         0         0         0         0         0
         0         0         0         0         0         0         0         0
         0         0         0         0         0         0         0         0
         0         0         0         0         0         0         0         0
         0         0         0         0         0         0         0         0
         0         0         0         0         0         0         0         0
         0         0         0         0         0         0         0         0
         0         0         0         0         0         0         0         0
         0         0         0         0         0         0         0         0
         0         0         0         0         0         0         0         0
         0         0         0         0         0         0         0         0
         0         0         0         0         0         0         0         0
         0         0         0         0         0         0         0         0
         0         0         0         0         0         0         0         0
         0         0         0         0         0         0         0         0
         0         0         0         0         0         0         0         0
         0         0         0         0         0         0         0         0
         0         0         0         0         0         0         0         0
         0         0         0         0         0         0         0         0
         0         0         0         0         0         0         0         0
         0         0         0         0         0         0         0         0
         0         0         0         0         0         0         0         0
         0         0         0         0         0         0         0         0
         0         0         0         0         0         0         0         0
         0         0         0         0         0         0         0         0
         0         0         0         0         0         0         0         0
         0         0         0         0         0         0         0         0
         0         0         0         0         0         0         0         0
         0         0         0         0         0         0         0         0
         0         0         0         0         0         0         0         0
         0         0         0         0         0         0         0         0
         0         0         0         0         0         0         0         0
         0         0         0         0         0         0         0         0
         0         0         0         0         0         0         0         0
         0         0         0         0         0         0         0         0
         0         0         0         0         0         0         0         0
         0         0         0         0         0         0         0         0
         0         0         0         0         0         0         0         0
         0         0         0         0         0         0         0         0
         0         0         0         0         0         0         0         0
         0         0         0         0         0         0         0         0
         0         0         0         0         0         0         0         0
         0         0         0         0         0         0         0         0
         0         0         0         0         0         0         0         0
         0         0         0         0         0         0         0         0
         0         0         0         0         0         0         0         0
         0         0         0         0         0         0         0         0
         0         0         0         0         0         0         0         0
         0         0         0         0         0         0         0         0
         0         0         0         0         0         0         0         0
         0         0         0         0         0         0         0         0
         0         0         0         0         0         0         0         0
         0         0         0         0         0         0         0         0
         0         0         0         0         0         0         0         0
         0         0         0         0         0         0         0         0
         0         0         0         0         0         0         0         0
         0         0         0         0         0         0         0         0
         0         0         0         0         0         0         0         0
         0         0         0         0         0         0         0         0
         0         0         0         0         0         0         0         0
         0         0         0         0         0         0         0         0
         0         0         0         0         0         0         0         0
         0         0         0         0         0         0         0         0
         0         0         0         0         0         0         0         0
         0         0         0         0         0         0         0         0
         0         0         0         0         0         0         0         0
         0         0         0         0         0         0         0         0
         0         0         0         0         0         0         0         0
         0         0         0         0         0         0         0         0
         0         0         0         0         0         0         0         0
         0         0         0         0         0         0         0         0
         0         0         0         0         0         0         0         0
         0         0         0         0         0         0         0         0
         0         0         0         0         0         0         0         0
         0         0         0         0         0         0         0         0
         0         0         0         0         0         0         0         0
         0         0         0         0         0         0         0         0
         0         0         0         0         0         0         0         0
         0         0         0         0         0         0         0         0
         0         0         0         0         0         0         0         0
         0         0         0         0         0         0         0         0
         0         0         0         0         0         0         0         0
         0         0         0         0         0         0         0         0
         0         0         0         0         0         0         0         0
         0         0         0         0         0         0         0         0
         0         0         0         0         0         0         0         0
         0         0         0         0         0         0         0         0
         0         0         0         0         0         0         0         0
         0         0         0         0         0         0         0         0
         0         0         0         0         0         0         0         0
         0         0         0         0         0         0         0         0
         0         0         0         0         0         0         0         0
         0         0         0         0         0         0         0         0
         0         0         0         0         0         0         0         0
         0         0         0         0         0         0         0         0
         0         0         0         0         0         0         0         0
         0         0         0         0         0         0         0         0
         0         0         0         0         0         0         0         0
         0         0         0         0         0         0         0         0
         0         0         0         0         0         0         0         0
         0         0         0         0         0         0         0         0
         0         0         0         0         0         0         0         0
         0         0         0         0         0         0         0         0
         0         0         0         0         0         0         0         0
         0         0         0         0         0         0         0         0
         0         0         0         0         0         0         0         0
         0         0         0         0         0         0         0         0
         0         0         0         0         0         0         0         0
         0         0         0         0         0         0         0         0
         0         0         0         0         0         0         0         0
         0         0         0         0         0         0         0         0
         0         0         0         0         0         0         0         0
         0         0         0         0         0         0         0         0
         0         0         0         0         0         0         0         0
         0         0         0         0         0         0         0         0
         0         0         0         0         0         0         0         0
         0         0         0         0         0         0         0         0
         0         0         0         0         0         0         0         0
         0         0         0         0         0         0         0         0
         0         0         0         0         0         0         0         0
         0         0         0         0         0         0         0         0
         0         0         0         0         0         0         0         0
         0         0         0         0         0         0         0         0
         0         0         0         0         0         0         0         0
         0         0         0         0         0         0         0         0
         0         0         0         0         0         0         0         0
         0         0         0         0         0         0         0         0
         0         0         0         0         0         0         0         0
         0         0         0         0         0         0         0         0
         0         0         0         0         0         0         0         0
         0         0         0         0         0         0         0         0
         0         0         0         0         0         0         0         0
         0         0         0         0         0         0         0         0
         0         0         0         0         0         0         0         0
         0         0         0         0         0         0         0         0
         0         0         0         0         0         0         0         0
         0         0         0         0         0         0         0         0
         0         0         0         0         0         0         0         0
         0         0         0         0         0         0         0         0
         0         0         0         0         0         0         0         0
         0         0         0         0         0         0         0         0
         0         0         0         0         0         0         0         0
         0         0         0         0         0         0         0         0
         0         0         0         0         0         0         0         0
         0         0         0         0         0         0         0         0
         0         0         0         0         0         0         0         0
         0         0         0         0         0         0         0         0
         0         0         0         0         0         0         0         0
         0         0         0         0         0         0         0         0
         0         0         0         0         0         0         0         0
         0         0         0         0         0         0         0         0
         0         0         0         0         0         0         0         0
         0         0         0         0         0         0         0         0
         0         0         0         0         0         0         0         0
         0         0         0         0         0         0         0         0
         0         0         0         0         0         0         0         0
         0         0         0         0         0         0         0         0
         0         0         0         0         0         0         0         0
         0         0         0         0         0         0         0         0
         0         0         0         0         0         0         0         0
         0         0         0         0         0         0         0         0
         0         0         0         0         0         0         0         0
         0         0         0         0         0         0         0         0
         0         0         0         0         0         0         0         0
         0         0         0         0         0         0         0         0
         0         0         0         0         0         0         0         0
         0         0         0         0         0         0         0         0
         0         0         0         0         0         0         0         0
         0         0         0         0         0         0         0         0
         0         0         0         0         0         0         0         0
         0         0         0         0         0         0         0         0
         0         0         0         0         0         0         0         0
         0         0         0         0         0         0         0         0
         0         0         0         0         0         0         0         0
         0         0         0         0         0         0         0         0
         0         0         0         0         0         0         0         0
         0         0         0         0         0         0         0         0
         0         0         0         0         0         0         0         0
         0         0         0         0         0         0         0         0
         0         0         0         0         0         0         0         0
         0         0         0         0         0         0         0         0
         0         0         0         0         0         0         0         0
         0         0         0         0         0         0         0         0
         0         0         0         0         0         0         0         0
         0         0         0         0         0         0         0         0
         0         0         0         0         0         0         0         0
         0         0         0         0         0         0         0         0
         0         0         0         0         0         0         0         0
         0         0         0         0         0         0         0         0
         0         0         0         0         0         0         0         0
         0         0         0         0         0         0         0         0
         0         0         0         0         0         0         0         0
         0         0         0         0         0         0         0         0
         0         0         0         0         0         0         0         0
         0         0         0         0         0         0         0         0
         0         0         0         0         0         0         0         0
         0         0         0         0         0         0         0         0
         0         0         0         0         0         0         0         0
         0         0         0         0         0         0         0         0
         0         0         0         0         0         0         0         0
         0         0         0         0         0         0         0         0
         0         0         0         0         0         0         0         0
         0         0         0         0         0         0         0         0
         0         0         0         0         0         0         0         0
         0         0         0         0         0         0         0         0
         0         0         0         0         0         0         0         0
         0         0         0         0         0         0         0         0
         0         0         0         0         0         0         0         0
         0         0         0         0         0         0         0         0
         0         0         0         0         0         0         0         0
         0         0         0         0         0         0         0         0
         0         0         0         0         0         0         0         0
         0         0         0         0         0         0         0         0
         0         0         0         0         0         0         0         0
         0         0         0         0         0         0         0         0
         0         0         0         0         0         0         0         0
         0         0         0         0         0         0         0         0
         0         0         0         0         0         0         0         0
         0         0         0         0         0         0         0         0
         0         0         0         0         0         0         0         0
         0         0         0         0         0         0         0         0
         0         0         0         0         0         0         0         0
         0         0         0         0         0         0         0         0
         0         0         0         0         0         0         0         0
         0         0         0         0         0         0         0         0
         0         0         0         0         0         0         0         0
         0         0         0         0         0         0         0         0
         0         0         0         0         0         0         0         0
         0         0         0         0         0         0         0         0
         0         0         0         0         0         0         0         0
         0         0         0         0         0         0         0         0
         0         0         0         0         0         0         0         0
         0         0         0         0         0         0         0         0
         0         0         0         0         0         0         0         0
         0         0         0         0         0         0         0         0
         0         0         0         0         0         0         0         0
         0         0         0         0         0         0         0         0
         0         0         0         0         0         0         0         0
         0         0         0         0         0         0         0         0
         0         0         0         0         0         0         0         0
         0         0         0         0         0         0         0         0
         0         0         0         0         0         0         0         0
         0         0         0         0         0         0         0         0
         0         0         0         0         0         0         0         0
         0         0         0         0         0         0         0         0
         0         0         0         0         0         0         0         0
         0         0         0         0         0         0         0         0
         0         0         0         0         0         0         0         0
         0         0         0         0         0         0         0         0
         0         0         0         0         0         0         0         0
         0         0         0         0         0         0         0         0
         0         0         0         0         0         0         0         0
         0         0         0         0         0         0         0         0
         0         0         0         0         0         0         0         0
         0         0         0         0         0         0         0         0
         0         0         0         0         0         0         0         0
         0         0         0         0         0         0         0         0
         0         0         0         0         0         0         0         0
         0         0         0         0         0         0         0         0
         0         0         0         0         0         0         0         0
         0         0         0         0         0         0         0         0
         0         0         0         0         0         0         0         0
         0         0         0         0         0         0         0         0
         0         0         0         0         0         0         0         0
         0         0         0         0         0         0         0         0
         0         0         0         0         0         0         0         0
         0         0         0         0         0         0         0         0
         0         0         0         0         0         0         0         0
         0         0         0         0         0         0         0         0
         0         0         0         0         0         0         0         0
         0         0         0         0         0         0         0         0
         0         0         0         0         0         0         0         0
         0         0         0         0         0         0         0         0
         0         0         0         0         0         0         0         0
         0         0         0         0         0         0         0         0
         0         0         0         0         0         0         0         0
         0         0         0         0         0         0         0         0
         0         0         0         0         0         0         0         0
         0         0         0         0         0         0         0         0
         0         0         0         0         0         0         0         0
         0         0         0         0         0         0         0         0
         0         0         0         0         0         0         0         0
         0         0         0         0         0         0         0         0
         0         0         0         0         0         0         0         0
         0         0         0         0         0         0         0         0
         0         0         0         0         0         0         0         0
         0         0         0         0         0         0         0         0
         0         0         0         0         0         0         0         0
         0         0         0         0         0         0         0         0
         0         0         0         0         0         0         0         0
         0         0         0         0         0         0         0         0
         0         0         0         0         0         0         0         0
         0         0         0         0         0         0         0         0
         0         0         0         0         0         0         0         0
         0         0         0         0         0         0         0         0
         0         0         0         0         0         0         0         0
         0         0         0         0         0         0         0         0
         0         0         0         0         0         0         0         0
         0         0         0         0         0         0         0         0
         0         0         0         0         0         0         0         0
         0         0         0         0         0         0         0         0
         0         0         0         0         0         0         0         0
         0         0         0         0         0         0         0         0
         0         0         0         0         0         0         0         0
         0         0         0         0         0         0         0         0
         0         0         0         0         0         0         0         0
         0         0         0         0         0         0         0         0
         0         0         0         0         0         0         0         0
         0         0         0         0         0         0         0         0
         0         0         0         0         0         0         0         0
         0         0         0         0         0         0         0         0
         0         0         0         0         0         0         0         0
         0         0         0         0         0         0         0         0
         0         0         0         0         0         0         0         0
         0         0         0         0         0         0         0         0
         0         0         0         0         0         0         0         0
         0         0         0         0         0         0         0         0
         0         0         0         0         0         0         0         0
         0         0         0         0         0         0         0         0
         0         0         0         0         0         0         0         0
         0         0         0         0         0         0         0         0
         0         0         0         0         0         0         0         0
         0         0         0         0         0         0         0         0
         0         0         0         0         0         0         0         0
         0         0         0         0         0         0         0         0
         0         0         0         0         0         0         0         0
         0         0         0         0         0         0         0         0
         0         0         0         0         0         0         0         0
         0         0         0         0         0         0         0         0
         0         0         0         0         0         0         0         0
         0         0         0         0         0         0         0         0
         0         0         0         0         0         0         0         0
         0         0         0         0         0         0         0         0
         0         0         0         0         0         0         0         0
         0         0         0         0         0         0         0         0
         0         0         0         0         0         0         0         0
         0         0         0         0         0         0         0         0
         0         0         0         0         0         0         0         0
         0         0         0         0         0         0         0         0
         0         0         0         0         0         0         0         0
         0         0         0         0         0         0         0         0
         0         0         0         0         0         0         0         0
         0         0         0         0         0         0         0         0
         0         0         0         0         0         0         0         0
         0         0         0         0         0         0         0         0
         0         0         0         0         0         0         0         0
         0         0         0         0         0         0         0         0
         0         0         0         0         0         0         0         0
         0         0         0         0         0         0         0         0
         0         0         0         0         0         0         0         0
         0         0         0         0         0         0         0         0
         0         0         0         0         0         0         0         0
         0         0         0         0         0         0         0         0
         0         0         0         0         0         0         0         0
         0         0         0         0         0         0         0         0
         0         0         0         0         0         0         0         0
         0         0         0         0         0         0         0         0
         0         0         0         0         0         0         0         0
         0         0         0         0         0         0         0         0
         0         0         0         0         0         0         0         0
         0         0         0         0         0         0         0         0
         0         0         0         0         0         0         0         0
         0         0         0         0         0         0         0         0
         0         0         0         0         0         0         0         0
         0         0         0         0         0         0         0         0
         0         0         0         0         0         0         0         0
         0         0         0         0         0         0         0         0
         0         0         0         0         0         0         0         0
         0         0         0         0         0         0         0         0
         0         0         0         0         0         0         0         0
         0         0         0         0         0         0         0         0
         0         0         0         0         0         0         0         0
         0         0         0         0         0         0         0         0
         0         0         0         0         0         0         0         0
         0         0         0         0         0         0         0         0
         0         0         0         0         0         0         0         0
         0         0         0         0         0         0         0         0
         0         0         0         0         0         0         0         0
         0         0         0         0         0         0         0         0
         0         0         0         0         0         0         0         0
         0         0         0         0         0         0         0         0
         0         0         0         0         0         0         0         0
         0         0         0         0         0         0         0         0
         0         0         0         0         0         0         0         0
         0         0         0         0         0         0         0         0
         0         0         0         0         0         0         0         0
         0         0         0         0         0         0         0         0
         0         0         0         0         0         0         0         0
         0         0         0         0         0         0         0         0
         0         0         0         0         0         0         0         0
         0         0         0         0         0         0         0         0
         0         0         0         0         0         0         0         0
         0         0         0         0         0         0         0         0
         0         0         0         0         0         0         0         0
         0         0         0         0         0         0         0         0
         0         0         0         0         0         0         0         0
         0         0         0         0         0         0         0         0
         0         0         0         0         0         0         0         0
         0         0         0         0         0         0         0         0
         0         0         0         0         0         0         0         0
         0         0         0         0         0         0         0         0
         0         0         0         0         0         0         0         0
         0         0         0         0         0         0         0         0
         0         0         0         0         0         0         0         0
         0         0         0         0         0         0         0         0
         0         0         0         0         0         0         0         0
         0         0         0         0         0         0         0         0
         0         0         0         0         0         0         0         0
         0         0         0         0         0         0         0         0
         0         0         0         0         0         0         0         0
         0         0         0         0         0         0         0         0
         0         0         0         0         0         0         0         0
         0         0         0         0         0         0         0         0
         0         0         0         0         0         0         0         0
         0         0         0         0         0         0         0         0
         0         0         0         0         0         0         0         0
         0         0         0         0         0         0         0         0
         0         0         0         0         0         0         0         0
         0         0         0         0         0         0         0         0
         0         0         0         0         0         0         0         0
         0         0         0         0         0         0         0         0
         0         0         0         0         0         0         0         0
         0         0         0         0         0         0         0         0
         0         0         0         0         0         0         0         0
         0         0         0         0         0         0         0         0
         0         0         0         0         0         0         0         0
         0         0         0         0         0         0         0         0
         0         0         0         0         0         0         0         0
         0         0         0         0         0         0         0         0
         0         0         0         0         0         0         0         0
         0         0         0         0         0         0         0         0
         0         0         0         0         0         0         0         0
         0         0         0         0         0         0         0         0
         0         0         0         0         0         0         0         0
         0         0         0         0         0         0         0         0
         0         0         0         0         0         0         0         0
         0         0         0         0         0         0         0         0
         0         0         0         0         0         0         0         0
         0         0         0         0         0         0         0         0
         0         0         0         0         0         0         0         0
         0         0         0         0         0         0         0         0
         0         0         0         0         0         0         0         0
         0         0         0         0         0         0         0         0
         0         0         0         0         0         0         0         0
         0         0         0         0         0         0         0         0
         0         0         0         0         0         0         0         0
         0         0         0         0         0         0         0         0
         0         0         0         0         0         0         0         0
         0         0         0         0         0         0         0         0
         0         0         0         0         0         0         0         0
         0         0         0         0         0         0         0         0
         0         0         0         0         0         0         0         0
         0         0         0         0         0         0         0         0
         0         0         0         0         0         0         0         0
         0         0         0         0         0         0         0         0
         0         0         0         0         0         0         0         0
         0         0         0         0         0         0         0         0
         0         0         0         0         0         0         0         0
         0         0         0         0         0         0         0         0
         0         0         0         0         0         0         0         0
         0         0         0         0         0         0         0         0
         0         0         0         0         0         0         0         0
         0         0         0         0         0         0         0         0
         0         0         0         0         0         0         0         0
         0         0         0         0         0         0         0         0
         0         0         0         0         0         0         0         0
         0         0         0         0         0         0         0         0
         0         0         0         0         0         0         0         0
         0         0         0         0         0         0         0         0
         0         0         0         0         0         0         0         0
         0         0         0         0         0         0         0         0
         0         0         0         0         0         0         0         0
         0         0         0         0         0         0         0         0
         0         0         0         0         0         0         0         0
         0         0         0         0         0         0         0         0
         0         0         0         0         0         0         0         0
         0         0         0         0         0         0         0         0
         0         0         0         0         0         0         0         0
         0         0         0         0         0         0         0         0
         0         0         0         0         0         0         0         0
         0         0         0         0         0         0         0         0
         0         0         0         0         0         0         0         0
         0         0         0         0         0         0         0         0
         0         0         0         0         0         0         0         0
         0         0         0         0         0         0         0         0
         0         0         0         0         0         0         0         0
         0         0         0         0         0         0         0         0
         0         0         0         0         0         0         0         0
         0         0         0         0         0         0         0         0
         0         0         0         0         0         0         0         0
         0         0         0         0         0         0         0         0
         0         0         0         0         0         0         0         0
         0         0         0         0         0         0         0         0
         0         0         0         0         0         0         0         0
         0         0         0         0         0         0         0         0
         0         0         0         0         0         0         0         0
         0         0         0         0         0         0         0         0
         0         0         0         0         0         0         0         0
         0         0         0         0         0         0         0         0
         0         0         0         0         0         0         0         0
         0         0         0         0         0         0         0         0
         0         0         0         0         0         0         0         0
         0         0         0         0         0         0         0         0
         0         0         0         0         0         0         0         0
         0         0         0         0         0         0         0         0
         0         0         0         0         0         0         0         0
         0         0         0         0         0         0         0         0
         0         0         0         0         0         0         0         0
         0         0         0         0         0         0         0         0
         0         0         0         0         0         0         0         0
         0         0         0         0         0         0         0         0
         0         0         0         0         0         0         0         0
         0         0         0         0         0         0         0         0
         0         0         0         0         0         0         0         0
         0         0         0         0         0         0         0         0
         0         0         0         0         0         0         0         0
         0         0         0         0         0         0         0         0
         0         0         0         0         0         0         0         0
         0         0         0         0         0         0         0         0
         0         0         0         0         0         0         0         0
         0         0         0         0         0         0         0         0
         0         0         0         0         0         0         0         0
         0         0         0         0         0         0         0         0
         0         0         0         0         0         0         0         0
         0         0         0         0         0         0         0         0
         0         0         0         0         0         0         0         0
         0         0         0         0         0         0         0         0
         0         0         0         0         0         0         0         0
         0         0         0         0         0         0         0         0
         0         0         0         0         0         0         0         0
         0         0         0         0         0         0         0         0
         0         0         0         0         0         0         0         0
         0         0         0         0         0         0         0         0
         0         0         0         0         0         0         0         0
         0         0         0         0         0         0         0         0
         0         0         0         0         0         0         0         0
         0         0         0         0         0         0         0         0
         0         0         0         0         0         0         0         0
         0         0         0         0         0         0         0         0
         0         0         0         0         0         0         0         0
         0         0         0         0         0         0         0         0
         0         0         0         0         0         0         0         0
         0         0         0         0         0         0         0         0
         0         0         0         0         0         0         0         0
         0         0         0         0         0         0         0         0
         0         0         0         0         0         0         0         0
         0         0         0         0         0         0         0         0
         0         0         0         0         0         0         0         0
         0         0         0         0         0         0         0         0
         0         0         0         0         0         0         0         0
         0         0         0         0         0         0         0         0
         0         0         0         0         0         0         0         0
         0         0         0         0         0         0         0         0
         0         0         0         0         0         0         0         0
         0         0         0         0         0         0         0         0
         0         0         0         0         0         0         0         0
         0         0         0         0         0         0         0         0
         0         0         0         0         0         0         0         0
         0         0         0         0         0         0         0         0
         0         0         0         0         0         0         0         0
         0         0         0         0         0         0         0         0
         0         0         0         0         0         0         0         0
         0         0         0         0         0         0         0         0
         0         0         0         0         0         0         0         0
         0         0         0         0         0         0         0         0
         0         0         0         0         0         0         0         0
         0         0         0         0         0         0         0         0
         0         0         0         0         0         0         0         0
         0         0         0         0         0         0         0         0
         0         0         0         0         0         0         0         0
         0         0         0         0         0         0         0         0
         0         0         0         0         0         0         0         0
         0         0         0         0         0         0         0         0
         0         0         0         0         0         0         0         0
         0         0         0         0         0         0         0         0
         0         0         0         0         0         0         0         0
         0         0         0         0         0         0         0         0
         0         0         0         0         0         0         0         0
         0         0         0         0         0         0         0         0
         0         0         0         0         0         0         0         0
         0         0         0         0         0         0         0         0
         0         0         0         0         0         0         0         0
         0         0         0         0         0         0         0         0
         0         0         0         0         0         0         0         0
         0         0         0         0         0         0         0         0
         0         0         0         0         0         0         0         0
         0         0         0         0         0         0         0         0
         0         0         0         0         0         0         0         0
         0         0         0         0         0         0         0         0
         0         0         0         0         0         0         0         0
         0         0         0         0         0         0         0         0
         0         0         0         0         0         0         0         0
         0         0         0         0         0         0         0         0
         0         0         0         0         0         0         0         0
         0         0         0         0         0         0         0         0
         0         0         0         0         0         0         0         0
         0         0         0         0         0         0         0         0
         0         0         0         0         0         0         0         0
         0         0         0         0         0         0         0         0
         0         0         0         0         0         0         0         0
         0         0         0         0         0         0         0         0
         0         0         0         0         0         0         0         0
         0         0         0         0         0         0         0         0
         0         0         0         0         0         0         0         0
         0         0         0         0         0         0         0         0
         0         0         0         0         0         0         0         0
         0         0         0         0         0         0         0         0
         0         0         0         0         0         0         0         0
         0         0         0         0         0         0         0         0
         0         0         0         0         0         0         0         0
         0         0         0         0         0         0         0         0
         0         0         0         0         0         0         0         0
         0         0         0         0         0         0         0         0
         0         0         0         0         0         0         0         0
         0         0         0         0         0         0         0         0
         0         0         0         0         0         0         0         0
         0         0         0         0         0         0         0         0
         0         0         0         0         0         0         0         0
         0         0         0         0         0         0         0         0
         0         0         0         0         0         0         0         0
         0         0         0         0         0         0         0         0
         0         0         0         0         0         0         0         0
         0         0         0         0         0         0         0         0
         0         0         0         0         0         0         0         0
         0         0         0         0         0         0         0         0
         0         0         0         0         0         0         0         0
         0         0         0         0         0         0         0         0
         0         0         0         0         0         0         0         0
         0         0         0         0         0         0         0         0
         0         0         0         0         0         0         0         0
         0         0         0         0         0         0         0         0
         0         0         0         0         0         0         0         0
         0         0         0         0         0         0         0         0
         0         0         0         0         0         0         0         0
         0         0         0         0         0         0         0         0
         0         0         0         0         0         0         0         0
         0         0         0         0         0         0         0         0
         0         0         0         0         0         0         0         0
         0         0         0         0         0         0         0         0
         0         0         0         0         0         0         0         0
         0         0         0         0         0         0         0         0
         0         0         0         0         0         0         0         0
         0         0         0         0         0         0         0         0
         0         0         0         0         0         0         0         0
         0         0         0         0         0         0         0         0
         0         0         0         0         0         0         0         0
         0         0         0         0         0         0         0         0
         0         0         0         0         0         0         0         0
         0         0         0         0         0         0         0         0
         0         0         0         0         0         0         0         0
         0         0         0         0         0         0         0         0
         0         0         0         0         0         0         0         0
         0         0         0         0         0         0         0         0
         0         0         0         0         0         0         0         0
         0         0         0         0         0         0         0         0
         0         0         0         0         0         0         0         0
         0         0         0         0         0         0         0         0
         0         0         0         0         0         0         0         0
         0         0         0         0         0         0         0         0
         0         0         0         0         0         0         0         0
         0         0         0         0         0         0         0         0
         0         0         0         0         0         0         0         0
         0         0         0         0         0         0         0         0
         0         0         0         0         0         0         0         0
         0         0         0         0         0         0         0         0
         0         0         0         0         0         0         0         0
         0         0         0         0         0         0         0         0
         0         0         0         0         0         0         0         0
         0         0         0         0         0         0         0         0
         0         0         0         0         0         0         0         0
         0         0         0         0         0         0         0         0
         0         0         0         0         0         0         0         0
         0         0         0         0         0         0         0         0
         0         0         0         0         0         0         0         0
         0         0         0         0         0         0         0         0
         0         0         0         0         0         0         0         0
         0         0         0         0         0         0         0         0
         0         0         0         0         0         0         0         0
         0         0         0         0         0         0         0         0
         0         0         0         0         0         0         0         0
         0         0         0         0         0         0         0         0
         0         0         0         0         0         0         0         0
         0         0         0         0         0         0         0         0
         0         0         0         0         0         0         0         0
         0         0         0         0         0         0         0         0
         0         0         0         0         0         0         0         0
         0         0         0         0         0         0         0         0
         0         0         0         0         0         0         0         0
         0         0         0         0         0         0         0         0
         0         0         0         0         0         0         0         0
         0         0         0         0         0         0         0         0
         0         0         0         0         0         0         0         0
         0         0         0         0         0         0         0         0
         0         0         0         0         0         0         0         0
         0         0         0         0         0         0         0         0
         0         0         0         0         0         0         0         0
         0         0         0         0         0         0         0         0
         0         0         0         0         0         0         0         0
         0         0         0         0         0         0         0         0
         0         0         0         0         0         0         0         0
         0         0         0         0         0         0         0         0
         0         0         0         0         0         0         0         0
         0         0         0         0         0         0         0         0
         0         0         0         0         0         0         0         0
         0         0         0         0         0         0         0         0
         0         0         0         0         0         0         0         0
         0         0         0         0         0         0         0         0
         0         0         0         0         0         0         0         0
         0         0         0         0         0         0         0         0
         0         0         0         0         0         0         0         0
         0         0         0         0         0         0         0         0
         0         0         0         0         0         0         0         0
         0         0         0         0         0         0         0         0
         0         0         0         0         0         0         0         0
         0         0         0         0         0         0         0         0
         0         0         0         0         0         0         0         0
         0         0         0         0         0         0         0         0
         0         0         0         0         0         0         0         0
         0         0         0         0         0         0         0         0
         0         0         0         0         0         0         0         0
         0         0         0         0         0         0         0         0
         0         0         0         0         0         0         0         0
         0         0         0         0         0         0         0         0
         0         0         0         0         0         0         0         0
         0         0         0         0         0         0         0         0
         0         0         0         0         0         0         0         0
         0         0         0         0         0         0         0         0
         0         0         0         0         0         0         0         0
         0         0         0         0         0         0         0         0
         0         0         0         0         0         0         0         0
         0         0         0         0         0         0         0         0
         0         0         0         0         0         0         0         0
         0         0         0         0         0         0         0         0
         0         0         0         0         0         0         0         0
         0         0         0         0         0         0         0         0
         0         0         0         0         0         0         0         0
         0         0         0         0         0         0         0         0
         0         0         0         0         0         0         0         0
         0         0         0         0         0         0         0         0
         0         0         0         0         0         0         0         0
         0         0         0         0         0         0         0         0
         0         0         0         0         0         0         0         0
         0         0         0         0         0         0         0         0
         0         0         0         0         0         0         0         0
         0         0         0         0         0         0         0         0
         0         0         0         0         0         0         0         0
         0         0         0         0         0         0         0         0
         0         0         0         0         0         0         0         0
         0         0         0         0         0         0         0         0
         0         0         0         0         0         0         0         0
         0         0         0         0         0         0         0         0
         0         0         0         0         0         0         0         0
         0         0         0         0         0         0         0         0
         0         0         0         0         0         0         0         0
         0         0         0         0         0         0         0         0
         0         0         0         0         0         0         0         0
         0         0         0         0         0         0         0         0
         0         0         0         0         0         0         0         0
         0         0         0         0         0         0         0         0
         0         0         0         0         0         0         0         0
         0         0         0         0         0         0         0         0
         0         0         0         0         0         0         0         0
         0         0         0         0         0         0         0         0
         0         0         0         0         0         0         0         0
         0         0         0         0         0         0         0         0
         0         0         0         0         0         0         0         0
         0         0         0         0         0         0         0         0
         0         0         0         0         0         0         0         0
         0         0         0         0         0         0         0         0
         0         0         0         0         0         0         0         0
         0         0         0         0         0         0         0         0
         0         0         0         0         0         0         0         0
         0         0         0         0         0         0         0         0
         0         0         0         0         0         0         0         0
         0         0         0         0         0         0         0         0
         0         0         0         0         0         0         0         0
         0         0         0         0         0         0         0         0
         0         0         0         0         0         0         0         0
         0         0         0         0         0         0         0         0
         0         0         0         0         0         0         0         0
         0         0         0         0         0         0         0         0
         0         0         0         0         0         0         0         0
         0         0         0         0         0         0         0         0
         0         0         0         0         0         0         0         0
         0         0         0         0         0         0         0         0
         0         0         0         0         0         0         0         0
         0         0         0         0         0         0         0         0
         0         0         0         0         0         0         0         0
         0         0         0         0         0         0         0         0
         0         0         0         0         0         0         0         0
         0         0         0         0         0         0         0         0
         0         0         0         0         0         0         0         0
         0         0         0         0         0         0         0         0
         0         0         0         0         0         0         0         0
         0         0         0         0         0         0         0         0
         0         0         0         0         0         0         0         0
         0         0         0         0         0         0         0         0
         0         0         0         0         0         0         0         0
         0         0         0         0         0         0         0         0
         0         0         0         0         0         0         0         0
         0         0         0         0         0         0         0         0
         0         0         0         0         0         0         0         0
         0         0         0         0         0         0         0         0
         0         0         0         0         0         0         0         0
         0         0         0         0         0         0         0         0
         0         0         0         0         0         0         0         0
         0         0         0         0         0         0         0         0
         0         0         0         0         0         0         0         0
         0         0         0         0         0         0         0         0
         0         0         0         0         0         0         0         0
         0         0         0         0         0         0         0         0
         0         0         0         0         0         0         0         0
         0         0         0         0         0         0         0         0
         0         0         0         0         0         0         0         0
         0         0         0         0         0         0         0         0
         0         0         0         0         0         0         0         0
         0         0         0         0         0         0         0         0
         0         0         0         0         0         0         0         0
         0         0         0         0         0         0         0         0
         0         0         0         0         0         0         0         0
         0         0         0         0         0         0         0         0
         0         0         0         0         0         0         0         0
         0         0         0         0         0         0         0         0
         0         0         0         0         0         0         0         0
         0         0         0         0         0         0         0         0
         0         0         0         0         0         0         0         0
         0         0         0         0         0         0         0         0
         0         0         0         0         0         0         0         0
         0         0         0         0         0         0         0         0
         0         0         0         0         0         0         0         0
         0         0         0         0         0         0         0         0
         0         0         0         0         0         0         0         0
         0         0         0         0         0         0         0         0
         0         0         0         0         0         0         0         0
         0         0         0         0         0         0         0         0
         0         0         0         0         0         0         0         0
         0         0         0         0         0         0         0         0
         0         0         0         0         0         0         0         0
         0         0         0         0         0         0         0         0
         0         0         0         0         0         0         0         0
         0         0         0         0         0         0         0         0
         0         0         0         0         0         0         0         0
         0         0         0         0         0         0         0         0
         0         0         0         0         0         0         0         0
         0         0         0         0         0         0         0         0
         0         0         0         0         0         0         0         0
         0         0         0         0         0         0         0         0
         0         0         0         0         0         0         0         0
         0         0         0         0         0         0         0         0
         0         0         0         0         0         0         0         0
         0         0         0         0         0         0         0         0
         0         0         0         0         0         0         0         0
         0         0         0         0         0         0         0         0
         0         0         0         0         0         0         0         0
         0         0         0         0         0         0         0         0
         0         0         0         0         0         0         0         0
         0         0         0         0         0         0         0         0
         0         0         0         0         0         0         0         0
         0         0         0         0         0         0         0         0
         0         0         0         0         0         0         0         0
         0         0         0         0         0         0         0         0
         0         0         0         0         0         0         0         0
         0         0         0         0         0         0         0         0
         0         0         0         0         0         0         0         0
         0         0         0         0         0         0         0         0
         0         0         0         0         0         0         0         0
         0         0         0         0         0         0         0         0
         0         0         0         0         0         0         0         0
         0         0         0         0         0         0         0         0
         0         0         0         0         0         0         0         0
         0         0         0         0         0         0         0         0
         0         0         0         0         0         0         0         0
         0         0         0         0         0         0         0         0
         0         0         0         0         0         0         0         0
         0         0         0         0         0         0         0         0
         0         0         0         0         0         0         0         0
         0         0         0         0         0         0         0         0
         0         0         0         0         0         0         0         0
         0         0         0         0         0         0         0         0
         0         0         0         0         0         0         0         0
         0         0         0         0         0         0         0         0
         0         0         0         0         0         0         0         0
         0         0         0         0         0         0         0         0
         0         0         0         0         0         0         0         0
         0         0         0         0         0         0         0         0
         0         0         0         0         0         0         0         0
         0         0         0         0         0         0         0         0
         0         0         0         0         0         0         0         0
         0         0         0         0         0         0         0         0
         0         0         0         0         0         0         0         0
         0         0         0         0         0         0         0         0
         0         0         0         0         0         0         0         0
         0         0         0         0         0         0         0         0
         0         0         0         0         0         0         0         0
         0         0         0         0         0         0         0         0
         0         0         0         0         0         0         0         0
         0         0         0         0         0         0         0         0
         0         0         0         0         0         0         0         0
         0         0         0         0         0         0         0         0
         0         0         0         0         0         0         0         0
         0         0         0         0         0         0         0         0
         0         0         0         0         0         0         0         0
         0         0         0         0         0         0         0         0
         0         0         0         0         0         0         0         0
         0         0         0         0         0         0         0         0
         0         0         0         0         0         0         0         0
         0         0         0         0         0         0         0         0
         0         0         0         0         0         0         0         0
         0         0         0         0         0         0         0         0
         0         0         0         0         0         0         0         0
         0         0         0         0         0         0         0         0
         0         0         0         0         0         0         0         0
         0         0         0         0         0         0         0         0
         0         0         0         0         0         0         0         0
         0         0         0         0         0         0         0         0
         0         0         0         0         0         0         0         0
         0         0         0         0         0         0         0         0
         0         0         0         0         0         0         0         0
         0         0         0         0         0         0         0         0
         0         0         0         0         0         0         0         0
         0         0         0         0         0         0         0         0
         0         0         0         0         0         0         0         0
         0         0         0         0         0         0         0         0
         0         0         0         0         0         0         0         0
         0         0         0         0         0         0         0         0
         0         0         0         0         0         0         0         0
         0         0         0         0         0         0         0         0
         0         0         0         0         0         0         0         0
         0         0         0         0         0         0         0         0
         0         0         0         0         0         0         0         0
         0         0         0         0         0         0         0         0
         0         0         0         0         0         0         0         0
         0         0         0         0         0         0         0         0
         0         0         0         0         0         0         0         0
         0         0         0         0         0         0         0         0
         0         0         0         0         0         0         0         0
         0         0         0         0         0         0         0         0
         0         0         0         0         0         0         0         0
         0         0         0         0         0         0         0         0
         0         0         0         0         0         0         0         0
         0         0         0         0         0         0         0         0
         0         0         0         0         0         0         0         0
         0         0         0         0         0         0         0         0
         0         0         0         0         0         0         0         0
         0         0         0         0         0         0         0         0
         0         0         0         0         0         0         0         0
         0         0         0         0         0         0         0         0
         0         0         0         0         0         0         0         0
         0         0         0         0         0         0         0         0
         0         0         0         0         0         0         0         0
         0         0         0         0         0         0         0         0
         0         0         0         0         0         0         0         0
         0         0         0         0         0         0         0         0
         0         0         0         0         0         0         0         0
         0         0         0         0         0         0         0         0
         0         0         0         0         0         0         0         0
         0         0         0         0         0         0         0         0
         0         0         0         0         0         0         0         0
         0         0         0         0         0         0         0         0
         0         0         0         0         0         0         0         0
         0         0         0         0         0         0         0         0
         0         0         0         0         0         0         0         0
         0         0         0         0         0         0         0         0
         0         0         0         0         0         0         0         0
         0         0         0         0         0         0         0         0
         0         0         0         0         0         0         0         0
         0         0         0         0         0         0         0         0
         0         0         0         0         0         0         0         0
         0         0         0         0         0         0         0         0
         0         0         0         0         0         0         0         0
         0         0         0         0         0         0         0         0
         0         0         0         0         0         0         0         0
         0         0         0         0         0         0         0         0
         0         0         0         0         0         0         0         0
         0         0         0         0         0         0         0         0
         0         0         0         0         0         0         0         0
         0         0         0         0         0         0         0         0
         0         0         0         0         0         0         0         0
         0         0         0         0         0         0         0         0
         0         0         0         0         0         0         0         0
         0         0         0         0         0         0         0         0
         0         0         0         0         0         0         0         0
         0         0         0         0         0         0         0         0
         0         0         0         0         0         0         0         0
         0         0         0         0         0         0         0         0
         0         0         0         0         0         0         0         0
         0         0         0         0         0         0         0         0
         0         0         0         0         0         0         0         0
         0         0         0         0         0         0         0         0
         0         0         0         0         0         0         0         0
         0         0         0         0         0         0         0         0
         0         0         0         0         0         0         0         0
         0         0         0         0         0         0         0         0
         0         0         0         0         0         0         0         0
         0         0         0         0         0         0         0         0
         0         0         0         0         0         0         0         0
         0         0         0         0         0         0         0         0
         0         0         0         0         0         0         0         0
         0         0         0         0         0         0         0         0
         0         0         0         0         0         0         0         0
         0         0         0         0         0         0         0         0
         0         0         0         0         0         0         0         0
         0         0         0         0         0         0         0         0
         0         0         0         0         0         0         0         0
         0         0         0         0         0         0         0         0
         0         0         0         0         0         0         0         0
         0         0         0         0         0         0         0         0
         0         0         0         0         0         0         0         0
         0         0         0         0         0         0         0         0
         0         0         0         0         0         0         0         0
         0         0         0         0         0         0         0         0
         0         0         0         0         0         0         0         0
         0         0         0         0         0         0         0         0
         0         0         0         0         0         0         0         0
         0         0         0         0         0         0         0         0
         0         0         0         0         0         0         0         0
         0         0         0         0         0         0         0         0
         0         0         0         0         0         0         0         0
         0         0         0         0         0         0         0         0
         0         0         0         0         0         0         0         0
         0         0         0         0         0         0         0         0
         0         0         0         0         0         0         0         0
         0         0         0         0         0         0         0         0
         0         0         0         0         0         0         0         0
         0         0         0         0         0         0         0         0
         0         0         0         0         0         0         0         0
         0         0         0         0         0         0         0         0
         0         0         0         0         0         0         0         0
         0         0         0         0         0         0         0         0
         0         0         0         0         0         0         0         0
         0         0         0         0         0         0         0         0
         0         0         0         0         0         0         0         0
         0         0         0         0         0         0         0         0
         0         0         0         0         0         0         0         0
         0         0         0         0         0         0         0         0
         0         0         0         0         0         0         0         0
         0         0         0         0         0         0         0         0
         0         0         0         0         0         0         0         0
         0         0         0         0         0         0         0         0
         0         0         0         0         0         0         0         0
         0         0         0         0         0         0         0         0
         0         0         0         0         0         0         0         0
         0         0         0         0         0         0         0         0
         0         0         0         0         0         0         0         0
         0         0         0         0         0         0         0         0
         0         0         0         0         0         0         0         0
         0         0         0         0         0         0         0         0
         0         0         0         0         0         0         0         0
         0         0         0         0         0         0         0         0
         0         0         0         0         0         0         0         0
         0         0         0         0         0         0         0         0
         0         0         0         0         0         0         0         0
         0         0         0         0         0         0         0         0
         0         0         0         0         0         0         0         0
         0         0         0         0         0         0         0         0
         0         0         0         0         0         0         0         0
         0         0         0         0         0         0         0         0
         0         0         0         0         0         0         0         0
         0         0         0         0         0         0         0         0
         0         0         0         0         0         0         0         0
         0         0         0         0         0         0         0         0
         0         0         0         0         0         0         0         0
         0         0         0         0         0         0         0         0
         0         0         0         0         0         0         0         0
         0         0         0         0         0         0         0         0
         0         0         0         0         0         0         0         0
         0         0         0         0         0         0         0         0
         0         0         0         0         0         0         0         0
         0         0         0         0         0         0         0         0
         0         0         0         0         0         0         0         0
         0         0         0         0         0         0         0         0
         0         0         0         0         0         0         0         0
         0         0         0         0         0         0         0         0
         0         0         0         0         0         0         0         0
         0         0         0         0         0         0         0         0
         0         0         0         0         0         0         0         0
         0         0         0         0         0         0         0         0
         0         0         0         0         0         0         0         0
         0         0         0         0         0         0         0         0
         0         0         0         0         0         0         0         0
         0         0         0         0         0         0         0         0
         0         0         0         0         0         0         0         0
         0         0         0         0         0         0         0         0
         0         0         0         0         0         0         0         0
         0         0         0         0         0         0         0         0
         0         0         0         0         0         0         0         0
         0         0         0         0         0         0         0         0
         0         0         0         0         0         0         0         0
         0         0         0         0         0         0         0         0
         0         0         0         0         0         0         0         0
         0         0         0         0         0         0         0         0
         0         0         0         0         0         0         0         0
         0         0         0         0         0         0         0         0
         0         0         0         0         0         0         0         0
         0         0         0         0         0         0         0         0
         0         0         0         0         0         0         0         0
         0         0         0         0         0         0         0         0
         0         0         0         0         0         0         0         0
         0         0         0         0         0         0         0         0
         0         0         0         0         0         0         0         0
         0         0         0         0         0         0         0         0
         0         0         0         0         0         0         0         0
         0         0         0         0         0         0         0         0
         0         0         0         0         0         0         0         0
         0         0         0         0         0         0         0         0
         0         0         0         0         0         0         0         0
         0         0         0         0         0         0         0         0
         0         0         0         0         0         0         0         0
         0         0         0         0         0         0         0         0
         0         0         0         0         0         0         0         0
         0         0         0         0         0         0         0         0
         0         0         0         0         0         0         0         0
         0         0         0         0         0         0         0         0
         0         0         0         0         0         0         0         0
         0         0         0         0         0         0         0         0
         0         0         0         0         0         0         0         0
         0         0         0         0         0         0         0         0
         0         0         0         0         0         0         0         0
         0         0         0         0         0         0         0         0
         0         0         0         0         0         0         0         0
         0         0         0         0         0         0         0         0
         0         0         0         0         0         0         0         0
         0         0         0         0         0         0         0         0
         0         0         0         0         0         0         0         0
         0         0         0         0         0         0         0         0
         0         0         0         0         0         0         0         0
         0         0         0         0         0         0         0         0
         0         0         0         0         0         0         0         0
         0         0         0         0         0         0         0         0
         0         0         0         0         0         0         0         0
         0         0         0         0         0         0         0         0
         0         0         0         0         0         0         0         0
         0         0         0         0         0         0         0         0
         0         0         0         0         0         0         0         0
         0         0         0         0         0         0         0         0
         0         0         0         0         0         0         0         0
         0         0         0         0         0         0         0         0
         0         0         0         0         0         0         0         0
         0         0         0         0         0         0         0         0
         0         0         0         0         0         0         0         0
         0         0         0         0         0         0         0         0
         0         0         0         0         0         0         0         0
         0         0         0         0         0         0         0         0
         0         0         0         0         0         0         0         0
         0         0         0         0         0         0         0         0
         0         0         0         0         0         0         0         0
         0         0         0         0         0         0         0         0
         0         0         0         0         0         0         0         0
         0         0         0         0         0         0         0         0
         0         0         0         0         0         0         0         0
         0         0         0         0         0         0         0         0
         0         0         0         0         0         0         0         0
         0         0         0         0         0         0         0         0
         0         0         0         0         0         0         0         0
         0         0         0         0         0         0         0         0
         0         0         0         0         0         0         0         0
         0         0         0         0         0         0         0         0
         0         0         0         0         0         0         0         0
         0         0         0         0         0         0         0         0
         0         0         0         0         0         0         0         0
         0         0         0         0         0         0         0         0
         0         0         0         0         0         0         0         0
         0         0         0         0         0         0         0         0
         0         0         0         0         0         0         0         0
         0         0         0         0         0         0         0         0
         0         0         0         0         0         0         0         0
         0         0         0         0         0         0         0         0
         0         0         0         0         0         0         0         0
         0         0         0         0         0         0         0         0
         0         0         0         0         0         0         0         0
         0         0         0         0         0         0         0         0
         0         0         0         0         0         0         0         0
         0         0         0         0         0         0         0         0
         0         0         0         0         0         0         0         0
         0         0         0         0         0         0         0         0
         0         0         0         0         0         0         0         0
         0         0         0         0         0         0         0         0
         0         0         0         0         0         0         0         0
         0         0         0         0         0         0         0         0
         0         0         0         0         0         0         0         0
         0         0         0         0         0         0         0         0
         0         0         0         0         0         0         0         0
         0         0         0         0         0         0         0         0
         0         0         0         0         0         0         0         0
         0         0         0         0         0         0         0         0
         0         0         0         0         0         0         0         0
         0         0         0         0         0         0         0         0
         0         0         0         0         0         0         0         0
         0         0         0         0         0         0         0         0
         0         0         0         0         0         0         0         0
         0         0         0         0         0         0         0         0
         0         0         0         0         0         0         0         0
         0         0         0         0         0         0         0         0
         0         0         0         0         0         0         0         0
         0         0         0         0         0         0         0         0
         0         0         0         0         0         0         0         0
         0         0         0         0         0         0         0         0
         0         0         0         0         0         0         0         0
         0         0         0         0         0         0         0         0
         0         0         0         0         0         0         0         0
         0         0         0         0         0         0         0         0
         0         0         0         0         0         0         0         0
         0         0         0         0         0         0         0         0
         0         0         0         0         0         0         0         0
         0         0         0         0         0         0         0         0
         0         0         0         0         0         0         0         0
         0         0         0         0         0         0         0         0
         0         0         0         0         0         0         0         0
         0         0         0         0         0         0         0         0
         0         0         0         0         0         0         0         0
         0         0         0         0         0         0         0         0
         0         0         0         0         0         0         0         0
         0         0         0         0         0         0         0         0
         0         0         0         0         0         0         0         0
         0         0         0         0         0         0         0         0
         0         0         0         0         0         0         0         0
         0         0         0         0         0         0         0         0
         0         0         0         0         0         0         0         0
         0         0         0         0         0         0         0         0
         0         0         0         0         0         0         0         0
         0         0         0         0         0         0         0         0
         0         0         0         0         0         0         0         0
         0         0         0         0         0         0         0         0
         0         0         0         0         0         0         0         0
         0         0         0         0         0         0         0         0
         0         0         0         0         0         0         0         0
         0         0         0         0         0         0         0         0
         0         0         0         0         0         0         0         0
         0         0         0         0         0         0         0         0
         0         0         0         0         0         0         0         0
         0         0         0         0         0         0         0         0
         0         0         0         0         0         0         0         0
         0         0         0         0         0         0         0         0
         0         0         0         0         0         0         0         0
         0         0         0         0         0         0         0         0
         0         0         0         0         0         0         0         0
         0         0         0         0         0         0         0         0
         0         0         0         0         0         0         0         0
         0         0         0         0         0         0         0         0
         0         0         0         0         0         0         0         0
         0         0         0         0         0         0         0         0
         0         0         0         0         0         0         0         0
         0         0         0         0         0         0         0         0
         0         0         0         0         0         0         0         0
         0         0         0         0         0         0         0         0
         0         0         0         0         0         0         0         0
         0         0         0         0         0         0         0         0
         0         0         0         0         0         0         0         0
         0         0         0         0         0         0         0         0
         0         0         0         0         0         0         0         0
         0         0         0         0         0         0         0         0
         0         0         0         0         0         0         0         0
         0         0         0         0         0         0         0         0
         0         0         0         0         0         0         0         0
         0         0         0         0         0         0         0         0
         0         0         0         0         0         0         0         0
         0         0         0         0         0         0         0         0
         0         0         0         0         0         0         0         0
         0         0         0         0         0         0         0         0
         0         0         0         0         0         0         0         0
         0         0         0         0         0         0         0         0
         0         0         0         0         0         0         0         0
         0         0         0         0         0         0         0         0
         0         0         0         0         0         0         0         0
         0         0         0         0         0         0         0         0
         0         0         0         0         0         0         0         0
         0         0         0         0         0         0         0         0
         0         0         0         0         0         0         0         0
         0         0         0         0         0         0         0         0
         0         0         0         0         0         0         0         0
         0         0         0         0         0         0         0         0
         0         0         0         0         0         0         0         0
         0         0         0         0         0         0         0         0
         0         0         0         0         0         0         0         0
         0         0         0         0         0         0         0         0
         0         0         0         0         0         0         0         0
         0         0         0         0         0         0         0         0
         0         0         0         0         0         0         0         0
         0         0         0         0         0         0         0         0
         0         0         0         0         0         0         0         0
         0         0         0         0         0         0         0         0
         0         0         0         0         0         0         0         0
         0         0         0         0         0         0         0         0
         0         0         0         0         0         0         0         0
         0         0         0         0         0         0         0         0
         0         0         0         0         0         0         0         0
         0         0         0         0         0         0         0         0
         0         0         0         0         0         0         0         0
         0         0         0         0         0         0         0         0
         0         0         0         0         0         0         0         0
         0         0         0         0         0         0         0         0
         0         0         0         0         0         0         0         0
         0         0         0         0         0         0         0         0
         0         0         0         0         0         0         0         0
         0         0         0         0         0         0         0         0
         0         0         0         0         0         0         0         0
         0         0         0         0         0         0         0         0
         0         0         0         0         0         0         0         0
         0         0         0         0         0         0         0         0
         0         0         0         0         0         0         0         0
         0         0         0         0         0         0         0         0
         0         0         0         0         0         0         0         0
         0         0         0         0         0         0         0         0
         0         0         0         0         0         0         0         0
         0         0         0         0         0         0         0         0
         0         0         0         0         0         0         0         0
         0         0         0         0         0         0         0         0
         0         0         0         0         0         0         0         0
         0         0         0         0         0         0         0         0
         0         0         0         0         0         0         0         0
         0         0         0         0         0         0         0         0
         0         0         0         0         0         0         0         0
         0         0         0         0         0         0         0         0
         0         0         0         0         0         0         0         0
         0         0         0         0         0         0         0         0
         0         0         0         0         0         0         0         0
         0         0         0         0         0         0         0         0
         0         0         0         0         0         0         0         0
         0         0         0         0         0         0         0         0
         0         0         0         0         0         0         0         0
         0         0         0         0         0         0         0         0
         0         0         0         0         0         0         0         0
         0         0         0         0         0         0         0         0
         0         0         0         0         0         0         0         0
         0         0         0         0         0         0         0         0
         0         0         0         0         0         0         0         0
         0         0         0         0         0         0         0         0
         0         0         0         0         0         0         0         0
         0         0         0         0         0         0         0         0
         0         0         0         0         0         0         0         0
         0         0         0         0         0         0         0         0
         0         0         0         0         0         0         0         0
         0         0         0         0         0         0         0         0
         0         0         0         0         0         0         0         0
         0         0         0         0         0         0         0         0
         0         0         0         0         0         0         0         0
         0         0         0         0         0         0         0         0
         0         0         0         0         0         0         0         0
         0         0         0         0         0         0         0         0
         0         0         0         0         0         0         0         0
         0         0         0         0         0         0         0         0
         0         0         0         0         0         0         0         0
         0         0         0         0         0         0         0         0
         0         0         0         0         0         0         0         0
         0         0         0         0         0         0         0         0
         0         0         0         0         0         0         0         0
         0         0         0         0         0         0         0         0
         0         0         0         0         0         0         0         0
         0         0         0         0         0         0         0         0
         0         0         0         0         0         0         0         0
         0         0         0         0         0         0         0         0
         0         0         0         0         0         0         0         0
         0         0         0         0         0         0         0         0
         0         0         0         0         0         0         0         0
         0         0         0         0         0         0         0         0
         0         0         0         0         0         0         0         0
         0         0         0         0         0         0         0         0
         0         0         0         0         0         0         0         0
         0         0         0         0         0         0         0         0
         0         0         0         0         0         0         0         0
         0         0         0         0         0         0         0         0
         0         0         0         0         0         0         0         0
         0         0         0         0         0         0         0         0
         0         0         0         0         0         0         0         0
         0         0         0         0         0         0         0         0
         0         0         0         0         0         0         0         0
         0         0         0         0         0         0         0         0
         0         0         0         0         0         0         0         0
         0         0         0         0         0         0         0         0
         0         0         0         0         0         0         0         0
         0         0         0         0         0         0         0         0
         0         0         0         0         0         0         0         0
         0         0         0         0         0         0         0         0
         0         0         0         0         0         0         0         0
         0         0         0         0         0         0         0         0
         0         0         0         0         0         0         0         0
         0         0         0         0         0         0         0         0
         0         0         0         0         0         0         0         0
         0         0         0         0         0         0         0         0
         0         0         0         0         0         0         0         0
         0         0         0         0         0         0         0         0
         0         0         0         0         0         0         0         0
         0         0         0         0         0         0         0         0
         0         0         0         0         0         0         0         0
         0         0         0         0         0         0         0         0
         0         0         0         0         0         0         0         0
         0         0         0         0         0         0         0         0
         0         0         0         0         0         0         0         0
         0         0         0         0         0         0         0         0
         0         0         0         0         0         0         0         0
         0         0         0         0         0         0         0         0
         0         0         0         0         0         0         0         0
         0         0         0         0         0         0         0         0
         0         0         0         0         0         0         0         0
         0         0         0         0         0         0         0         0
         0         0         0         0         0         0         0         0
         0         0         0         0         0         0         0         0
         0         0         0         0         0         0         0         0
         0         0         0         0         0         0         0         0
         0         0         0         0         0         0         0         0
         0         0         0         0         0         0         0         0
         0         0         0         0         0         0         0         0
         0         0         0         0         0         0         0         0
         0         0         0         0         0         0         0         0
         0         0         0         0         0         0         0         0
         0         0         0         0         0         0         0         0
         0         0         0         0         0         0         0         0
         0         0         0         0         0         0         0         0
         0         0         0         0         0         0         0         0
         0         0         0         0         0         0         0         0
         0         0         0         0         0         0         0         0
         0         0         0         0         0         0         0         0
         0         0         0         0         0         0         0         0
         0         0         0         0         0         0         0         0
         0         0         0         0         0         0         0         0
         0         0         0         0         0         0         0         0
         0         0         0         0         0         0         0         0
         0         0         0         0         0         0         0         0
         0         0         0         0         0         0         0         0
         0         0         0         0         0         0         0         0
         0         0         0         0         0         0         0         0
         0         0         0         0         0         0         0         0
         0         0         0         0         0         0         0         0
         0         0         0         0         0         0         0         0
         0         0         0         0         0         0         0         0
         0         0         0         0         0         0         0         0
         0         0         0         0         0         0         0         0
         0         0         0         0         0         0         0         0
         0         0         0         0         0         0         0         0
         0         0         0         0         0         0         0         0
         0         0         0         0         0         0         0         0
         0         0         0         0         0         0         0         0
         0         0         0         0         0         0         0         0
         0         0         0         0         0         0         0         0
         0         0         0         0         0         0         0         0
         0         0         0         0         0         0         0         0
         0         0         0         0         0         0         0         0
         0         0         0         0         0         0         0         0
         0         0         0         0         0         0         0         0
         0         0         0         0         0         0         0         0
         0         0         0         0         0         0         0         0
         0         0         0         0         0         0         0         0
         0         0         0         0         0         0         0         0
         0         0         0         0         0         0         0         0
         0         0         0         0         0         0         0         0
         0         0         0         0         0         0         0         0
         0         0         0         0         0         0         0         0
         0         0         0         0         0         0         0         0
         0         0         0         0         0         0         0         0
         0         0         0         0         0         0         0         0
         0         0         0         0         0         0         0         0
         0         0         0         0         0         0         0         0
         0         0         0         0         0         0         0         0
         0         0         0         0         0         0         0         0
         0         0         0         0         0         0         0         0
         0         0         0         0         0         0         0         0
         0         0         0         0         0         0         0         0
         0         0         0         0         0         0         0         0
         0         0         0         0         0         0         0         0
         0         0         0         0         0         0         0         0
         0         0         0         0         0         0         0         0
         0         0         0         0         0         0         0         0
         0         0         0         0         0         0         0         0
         0         0         0         0         0         0         0         0
         0         0         0         0         0         0         0         0
         0         0         0         0         0         0         0         0
         0         0         0         0         0         0         0         0
         0         0         0         0         0         0         0         0
         0         0         0         0         0         0         0         0
         0         0         0         0         0         0         0         0
         0         0         0         0         0         0         0         0
         0         0         0         0         0         0         0         0
         0         0         0         0         0         0         0         0
         0         0         0         0         0         0         0         0
         0         0         0         0         0         0         0         0
         0         0         0         0         0         0         0         0
         0         0         0         0         0         0         0         0
         0         0         0         0         0         0         0         0
         0         0         0         0         0         0         0         0
         0         0         0         0         0         0         0         0
         0         0         0         0         0         0         0         0
         0         0         0         0         0         0         0         0
         0         0         0         0         0         0         0         0
         0         0         0         0         0         0         0         0
         0         0         0         0         0         0         0         0
         0         0         0         0         0         0         0         0
         0         0         0         0         0         0         0         0
         0         0         0         0         0         0         0         0
         0         0         0         0         0         0         0         0
         0         0         0         0         0         0         0         0
         0         0         0         0         0         0         0         0
         0         0         0         0         0         0         0         0
         0         0         0         0         0         0         0         0
         0         0         0         0         0         0         0         0
         0         0         0         0         0         0         0         0
         0         0         0         0         0         0         0         0
         0         0         0         0         0         0         0         0
         0         0         0         0         0         0         0         0
         0         0         0         0         0         0         0         0
         0         0         0         0         0         0         0         0
         0         0         0         0         0         0         0         0
         0         0         0         0         0         0         0         0
         0         0         0         0         0         0         0         0
         0         0         0         0         0         0         0         0
         0         0         0         0         0         0         0         0
         0         0         0         0         0         0         0         0
         0         0         0         0         0         0         0         0
         0         0         0         0         0         0         0         0
         0         0         0         0         0         0         0         0
         0         0         0         0         0         0         0         0
         0         0         0         0         0         0         0         0
         0         0         0         0         0         0         0         0
         0         0         0         0         0         0         0         0
         0         0         0         0         0         0         0         0
         0         0         0         0         0         0         0         0
         0         0         0         0         0         0         0         0
         0         0         0         0         0         0         0         0
         0         0         0         0         0         0         0         0
         0         0         0         0         0         0         0         0
         0         0         0         0         0         0         0         0
         0         0         0         0         0         0         0         0
         0         0         0         0         0         0         0         0
         0         0         0         0         0         0         0         0
         0         0         0         0         0         0         0         0
         0         0         0         0         0         0         0         0
         0         0         0         0         0         0         0         0
         0         0         0         0         0         0         0         0
         0         0         0         0         0         0         0         0
         0         0         0         0         0         0         0         0
         0         0         0         0         0         0         0         0
         0         0         0         0         0         0         0         0
         0         0         0         0         0         0         0         0
         0         0         0         0         0         0         0         0
         0         0         0         0         0         0         0         0
         0         0         0         0         0         0         0         0
         0         0         0         0         0         0         0         0
         0         0         0         0         0         0         0         0
         0         0         0         0         0         0         0         0
         0         0         0         0         0         0         0         0
         0         0         0         0         0         0         0         0
         0         0         0         0         0         0         0         0
         0         0         0         0         0         0         0         0
         0         0         0         0         0         0         0         0
         0         0         0         0         0         0         0         0
         0         0         0         0         0         0         0         0
         0         0         0         0         0         0         0         0
         0         0         0         0         0         0         0         0
         0         0         0         0         0         0         0         0
         0         0         0         0         0         0         0         0
         0         0         0         0         0         0         0         0
         0         0         0         0         0         0         0         0
         0         0         0         0         0         0         0         0
         0         0         0         0         0         0         0         0
         0         0         0         0         0         0         0         0
         0         0         0         0         0         0         0         0
         0         0         0         0         0         0         0         0
         0         0         0         0         0         0         0         0
         0         0         0         0         0         0         0         0
         0         0         0         0         0         0         0         0
         0         0         0         0         0         0         0         0
         0         0         0         0         0         0         0         0
         0         0         0         0         0         0         0         0
         0         0         0         0         0         0         0         0
         0         0         0         0         0         0         0         0
         0         0         0         0         0         0         0         0
         0         0         0         0         0         0         0         0
         0         0         0         0         0         0         0         0
         0         0         0         0         0         0         0         0
         0         0         0         0         0         0         0         0
         0         0         0         0         0         0         0         0
         0         0         0         0         0         0         0         0
         0         0         0         0         0         0         0         0
         0         0         0         0         0         0         0         0
         0         0         0         0         0         0         0         0
         0         0         0         0         0         0         0         0
         0         0         0         0         0         0         0         0
         0         0         0         0         0         0         0         0
         0         0         0         0         0         0         0         0
         0         0         0         0         0         0         0         0
         0         0         0         0         0         0         0         0
         0         0         0         0         0         0         0         0
         0         0         0         0         0         0         0         0
         0         0         0         0         0         0         0         0
         0         0         0         0         0         0         0         0
         0         0         0         0         0         0         0         0
         0         0         0         0         0         0         0         0
         0         0         0         0         0         0         0         0
         0         0         0         0         0         0         0         0
         0         0         0         0         0         0         0         0
         0         0         0         0         0         0         0         0
         0         0         0         0         0         0         0         0
         0         0         0         0         0         0         0         0
         0         0         0         0         0         0         0         0
         0         0         0         0         0         0         0         0
         0         0         0         0         0         0         0         0
         0         0         0         0         0         0         0         0
         0         0         0         0         0         0         0         0
         0         0         0         0         0         0         0         0
         0         0         0         0         0         0         0         0
         0         0         0         0         0         0         0         0
         0         0         0         0         0         0         0         0
         0         0         0         0         0         0         0         0
         0         0         0         0         0         0         0         0
         0         0         0         0         0         0         0         0
         0         0         0         0         0         0         0         0
         0         0         0         0         0         0         0         0
         0         0         0         0         0         0         0         0
         0         0         0         0         0         0         0         0
         0         0         0         0         0         0         0         0
         0         0         0         0         0         0         0         0
         0         0         0         0         0         0         0         0
         0         0         0         0         0         0         0         0
         0         0         0         0         0         0         0         0
         0         0         0         0         0         0         0         0
         0         0         0         0         0         0         0         0
         0         0         0         0         0         0         0         0
         0         0         0         0         0         0         0         0
         0         0         0         0         0         0         0         0
         0         0         0         0         0         0         0         0
         0         0         0         0         0         0         0         0
         0         0         0         0         0         0         0         0
         0         0         0         0         0         0         0         0
         0         0         0         0         0         0         0         0
         0         0         0         0         0         0         0         0
         0         0         0         0         0         0         0         0
         0         0         0         0         0         0         0         0
         0         0         0         0         0         0         0         0
         0         0         0         0         0         0         0         0
         0         0         0         0         0         0         0         0
         0         0         0         0         0         0         0         0
         0         0         0         0         0         0         0         0
         0         0         0         0         0         0         0         0
         0         0         0         0         0         0         0         0
         0         0         0         0         0         0         0         0
         0         0         0         0         0         0         0         0
         0         0         0         0         0         0         0         0
         0         0         0         0         0         0         0         0
         0         0         0         0         0         0         0         0
         0         0         0         0         0         0         0         0
         0         0         0         0         0         0         0         0
         0         0         0         0         0         0         0         0
         0         0         0         0         0         0         0         0
         0         0         0         0         0         0         0         0
         0         0         0         0         0         0         0         0
         0         0         0         0         0         0         0         0
         0         0         0         0         0         0         0         0
         0         0         0         0         0         0         0         0
         0         0         0         0         0         0         0         0
         0         0         0         0         0         0         0         0
         0         0         0         0         0         0         0         0
         0         0         0         0         0         0         0         0
         0         0         0         0         0         0         0         0
         0         0         0         0         0         0         0         0
         0         0         0         0         0         0         0         0
         0         0         0         0         0         0         0         0
         0         0         0         0         0         0         0         0
         0         0         0         0         0         0         0         0
         0         0         0         0         0         0         0         0
         0         0         0         0         0         0         0         0
         0         0         0         0         0         0         0         0
         0         0         0         0         0         0         0         0
         0         0         0         0         0         0         0         0
         0         0         0         0         0         0         0         0
         0         0         0         0         0         0         0         0
         0         0         0         0         0         0         0         0
         0         0         0         0         0         0         0         0
         0         0         0         0         0         0         0         0
         0         0         0         0         0         0         0         0
         0         0         0         0         0         0         0         0
         0         0         0         0         0         0         0         0
         0         0         0         0         0         0         0         0
         0         0         0         0         0         0         0         0
         0         0         0         0         0         0         0         0
         0         0         0         0         0         0         0         0
         0         0         0         0         0         0         0         0
         0         0         0         0         0         0         0         0
         0         0         0         0         0         0         0         0
         0         0         0         0         0         0         0         0
         0         0         0         0         0         0         0         0
         0         0         0         0         0         0         0         0
         0         0         0         0         0         0         0         0
         0         0         0         0         0         0         0         0
         0         0         0         0         0         0         0         0
         0         0         0         0         0         0         0         0
         0         0         0         0         0         0         0         0
         0         0         0         0         0         0         0         0
         0         0         0         0         0         0         0         0
         0         0         0         0         0         0         0         0
         0         0         0         0         0         0         0         0
         0         0         0         0         0         0         0         0
         0         0         0         0         0         0         0         0
         0         0         0         0         0         0         0         0
         0         0         0         0         0         0         0         0
         0         0         0         0         0         0         0         0
         0         0         0         0         0         0         0         0
         0         0         0         0         0         0         0         0
         0         0         0         0         0         0         0         0
         0         0         0         0         0         0         0         0
         0         0         0         0         0         0         0         0
         0         0         0         0         0         0         0         0
         0         0         0         0         0         0         0         0
         0         0         0         0         0         0         0         0
         0         0         0         0         0         0         0         0
         0         0         0         0         0         0         0         0
         0         0         0         0         0         0         0         0
         0         0         0         0         0         0         0         0
         0         0         0         0         0         0         0         0
         0         0         0         0         0         0         0         0
         0         0         0         0         0         0         0         0
         0         0         0         0         0         0         0         0
         0         0         0         0         0         0         0         0
         0         0         0         0         0         0         0         0
         0         0         0         0         0         0         0         0
         0         0         0         0         0         0         0         0
         0         0         0         0         0         0         0         0
         0         0         0         0         0         0         0         0
         0         0         0         0         0         0         0         0
         0         0         0         0         0         0         0         0
         0         0         0         0         0         0         0         0
         0         0         0         0         0         0         0         0
         0         0         0         0         0         0         0         0
         0         0         0         0         0         0         0         0
         0         0         0         0         0         0         0         0
         0         0         0         0         0         0         0         0
         0         0         0         0         0         0         0         0
         0         0         0         0         0         0         0         0
         0         0         0         0         0         0         0         0
         0         0         0         0         0         0         0         0
         0         0         0         0         0         0         0         0
         0         0         0         0         0         0         0         0
         0         0         0         0         0         0         0         0
         0         0         0         0         0         0         0         0
         0         0         0         0         0         0         0         0
         0         0         0         0         0         0         0         0
         0         0         0         0         0         0         0         0
         0         0         0         0         0         0         0         0
         0         0         0         0         0         0         0         0
         0         0         0         0         0         0         0         0
         0         0         0         0         0         0         0         0
         0         0         0         0         0         0         0         0
         0         0         0         0         0         0         0         0
         0         0         0         0         0         0         0         0
         0         0         0         0         0         0         0         0
         0         0         0         0         0         0         0         0
         0         0         0         0         0         0         0         0
         0         0         0         0         0         0         0         0
         0         0         0         0         0         0         0         0
         0         0         0         0         0         0         0         0
         0         0         0         0         0         0         0         0
         0         0         0         0         0         0         0         0
         0         0         0         0         0         0         0         0
         0         0         0         0         0         0         0         0
         0         0         0         0         0         0         0         0
         0         0         0         0         0         0         0         0
         0         0         0         0         0         0         0         0
         0         0         0         0         0         0         0         0
         0         0         0         0         0         0         0         0
         0         0         0         0         0         0         0         0
         0         0         0         0         0         0         0         0
         0         0         0         0         0         0         0         0
         0         0         0         0         0         0         0         0
         0         0         0         0         0         0         0         0
         0         0         0         0         0         0         0         0
         0         0         0         0         0         0         0         0
         0         0         0         0         0         0         0         0
         0         0         0         0         0         0         0         0
         0         0         0         0         0         0         0         0
         0         0         0         0         0         0         0         0
         0         0         0         0         0         0         0         0
         0         0         0         0         0         0         0         0
         0         0         0         0         0         0         0         0
         0         0         0         0         0         0         0         0
         0         0         0         0         0         0         0         0
         0         0         0         0         0         0         0         0
         0         0         0         0         0         0         0         0
         0         0         0         0         0         0         0         0
         0         0         0         0         0         0         0         0
         0         0         0         0         0         0         0         0
         0         0         0         0         0         0         0         0
         0         0         0         0         0         0         0         0
         0         0         0         0         0         0         0         0
         0         0         0         0         0         0         0         0
         0         0         0         0         0         0         0         0
         0         0         0         0         0         0         0         0
         0         0         0         0         0         0         0         0
         0         0         0         0         0         0         0         0
         0         0         0         0         0         0         0         0
         0         0         0         0         0         0         0         0
         0         0         0         0         0         0         0         0
         0         0         0         0         0         0         0         0
         0         0         0         0         0         0         0         0
         0         0         0         0         0         0         0         0
         0         0         0         0         0         0         0         0
         0         0         0         0         0         0         0         0
         0         0         0         0         0         0         0         0
         0         0         0         0         0         0         0         0
         0         0         0         0         0         0         0         0
         0         0         0         0         0         0         0         0
         0         0         0         0         0         0         0         0
         0         0         0         0         0         0         0         0
         0         0         0         0         0         0         0         0
         0         0         0         0         0         0         0         0
         0         0         0         0         0         0         0         0
         0         0         0         0         0         0         0         0
         0         0         0         0         0         0         0         0
         0         0         0         0         0         0         0         0
         0         0         0         0         0         0         0         0
         0         0         0         0         0         0         0         0
         0         0         0         0         0         0         0         0
         0         0         0         0         0         0         0         0
         0         0         0         0         0         0         0         0
         0         0         0         0         0         0         0         0
         0         0         0         0         0         0         0         0
         0         0         0         0         0         0         0         0
         0         0         0         0         0         0         0         0
         0         0         0         0         0         0         0         0
         0         0         0         0         0         0         0         0
         0         0         0         0         0         0         0         0
         0         0         0         0         0         0         0         0
         0         0         0         0         0         0         0         0
         0         0         0         0         0         0         0         0
         0         0         0         0         0         0         0         0
         0         0         0         0         0         0         0         0
         0         0         0         0         0         0         0         0
         0         0         0         0         0         0         0         0
         0         0         0         0         0         0         0         0
         0         0         0         0         0         0         0         0
         0         0         0         0         0         0         0         0
         0         0         0         0         0         0         0         0
         0         0         0         0         0         0         0         0
         0         0         0         0         0         0         0         0
         0         0         0         0         0         0         0         0
         0         0         0         0         0         0         0         0
         0         0         0         0         0         0         0         0
         0         0         0         0         0         0         0         0
         0         0         0         0         0         0         0         0
         0         0         0         0         0         0         0         0
         0         0         0         0         0         0         0         0
         0         0         0         0         0         0         0         0
         0         0         0         0         0         0         0         0
         0         0         0         0         0         0         0         0
         0         0         0         0         0         0         0         0
         0         0         0         0         0         0         0         0
         0         0         0         0         0         0         0         0
         0         0         0         0         0         0         0         0
         0         0         0         0         0         0         0         0
         0         0         0         0         0         0         0         0
         0         0         0         0         0         0         0         0
         0         0         0         0         0         0         0         0
         0         0         0         0         0         0         0         0
         0         0         0         0         0         0         0         0
         0         0         0         0         0         0         0         0
         0         0         0         0         0         0         0         0
         0         0         0         0         0         0         0         0
         0         0         0         0         0         0         0         0
         0         0         0         0         0         0         0         0
         0         0         0         0         0         0         0         0
         0         0         0         0         0         0         0         0
         0         0         0         0         0         0         0         0
         0         0         0         0         0         0         0         0
         0         0         0         0         0         0         0         0
         0         0         0         0         0         0         0         0
         0         0         0         0         0         0         0         0
         0         0         0         0         0         0         0         0
         0         0         0         0         0         0         0         0
         0         0         0         0         0         0         0         0
         0         0         0         0         0         0         0         0
         0         0         0         0         0         0         0         0
         0         0         0         0         0         0         0         0
         0         0         0         0         0         0         0         0
         0         0         0         0         0         0         0         0
         0         0         0         0         0         0         0         0
         0         0         0         0         0         0         0         0
         0         0         0         0         0         0         0         0
         0         0         0         0         0         0         0         0
         0         0         0         0         0         0         0         0
         0         0         0         0         0         0         0         0
         0         0         0         0         0         0         0         0
         0         0         0         0         0         0         0         0
         0         0         0         0         0         0         0         0
         0         0         0         0         0         0         0         0
         0         0         0         0         0         0         0         0
         0         0         0         0         0         0         0         0
         0         0         0         0         0         0         0         0
         0         0         0         0         0         0         0         0
         0         0         0         0         0         0         0         0
         0         0         0         0         0         0         0         0
         0         0         0         0         0         0         0         0
         0         0         0         0         0         0         0         0
         0         0         0         0         0         0         0         0
         0         0         0         0         0         0         0         0
         0         0         0         0         0         0         0         0
         0         0         0         0

      6508         0 !NGRP NST2
         0         1         0         4         1         0         7         1         0
        10         1         0        13         1         0        15         1         0
        17         1         0        20         1         0        23         1         0
        25         0         0        26         1         0        30         1         0
        33         1         0        36         1         0        38         0         0
        39         1         0        43         1         0        46         1         0
        49         1         0        51         1         0        55         1         0
        58         1         0        61         1         0        64         1         0
        66         1         0        70         1         0        74         2         0
        90         2         0       101         1         0       109         1         0
       118         1         0       121         1         0       124         1         0
       126         1         0       128         1         0       131         1         0
       133         1         0       135         1         0       138         1         0
       140         1         0       142         1         0       145         1         0
       147         1         0       149         1         0       152         1         0
       155         2         0       158         1         0       161         2         0
       165         1         0       168         1         0       171         1         0
       174         1         0       177         1         0       180         1         0
       183         1         0       186         1         0       189         1         0
       192         1         0       195         1         0       198         1         0
       201         1         0       204         1         0       207         1         0
       210         1         0       214         2         0       230         2         0
       241         1         0       249         1         0       258         1         0
       261         1         0       264         1         0       267         1         0
       270         1         0       273         1         0       276         1         0
       278         1         0       280         1         0       283         1         0
       285         1         0       287         1         0       290         1         0
       293         1         0       296         1         0       299         1         0
       303         1         0       306         1         0       309         1         0
       312         1         0       315         1         0       318         1         0
       321         1         0       324         1         0       327         1         0
       330         1         0       333         1         0       336         1         0
       339         1         0       342         1         0       345         1         0
       348         1         0       352         2         0       358         2         0
       361         2         0       372         1         0       380         1         0
       389         1         0       392         1         0       395         1         0
       397         1         0       399         1         0       402         1         0
       404         1         0       406         1         0       409         1         0
       411         1         0       413         1         0       416         1         0
       418         1         0       420         1         0       423         1         0
       426         1         0       429         1         0       432         1         0
       436         1         0       439         1         0       442         1         0
       445         1         0       448         1         0       451         1         0
       454         1         0       457         1         0       460         1         0
       463         1         0       466         1         0       469         1         0
       472         1         0       475         1         0       478         1         0
       481         1         0       485         2         0       491         2         0
       494         2         0       505         1         0       513         1         0
       522         1         0       525         1         0       528         1         0
       530         1         0       532         1         0       535         1         0
       537         1         0       539         1         0       542         1         0
       544         1         0       546         1         0       549         1         0
       551         1         0       553         1         0       556         1         0
       559         1         0       562         1         0       565         1         0
       569         1         0       572         1         0       575         1         0
       578         1         0       581         1         0       584         1         0
       587         1         0       590         1         0       593         1         0
       596         1         0       599         1         0       602         1         0
       605         1         0       608         1         0       611         1         0
       614         1         0       618         1         0       622         1         0
       625         1         0       628         1         0       631         1         0
       633         1         0       635         1         0       638         1         0
       641         1         0       643         0         0       644         1         0
       648         1         0       651         1         0       654         1         0
       656         0         0       657         1         0       661         1         0
       664         1         0       667         1         0       669         1         0
       673         1         0       676         1         0       679         1         0
       682         1         0       684         1         0       688         1         0
       692         2         0       708         2         0       719         1         0
       727         1         0       736         1         0       739         1         0
       742         1         0       745         1         0       748         1         0
       751         1         0       754         1         0       756         1         0
       758         1         0       761         1         0       763         1         0
       765         1         0       768         1         0       771         1         0
       774         1         0       777         1         0       781         1         0
       784         1         0       787         1         0       790         1         0
       793         1         0       796         1         0       799         1         0
       802         1         0       805         1         0       808         1         0
       811         1         0       814         1         0       817         1         0
       820         1         0       823         1         0       826         1         0
       830         2         0       846         2         0       857         1         0
       861         1         0       865         1         0       867         1         0
       869         1         0       872         1         0       875         1         0
       878         1         0       881         1         0       884         1         0
       887         1         0       890         1         0       893         1         0
       896         1         0       899         1         0       902         1         0
       905         1         0       909         1         0       914         1         0
       917         1         0       920         1         0       923         1         0
       926         1         0       929         1         0       932         1         0
       934         1         0       936         1         0       939         1         0
       942         1         0       945         1         0       948         1         0
       951         1         0       954         1         0       957         1         0
       961         2         0       968         2         0       979         1         0
       987         1         0       996         1         0       999         1         0
      1002         1         0      1004         1         0      1006         1         0
      1009         1         0      1011         1         0      1013         1         0
      1016         1         0      1018         1         0      1020         1         0
      1023         1         0      1025         1         0      1027         1         0
      1030         1         0      1033         1         0      1036         1         0
      1039         1         0      1043         1         0      1046         1         0
      1049         1         0      1052         1         0      1055         1         0
      1058         1         0      1061         1         0      1064         1         0
      1067         1         0      1070         1         0      1073         1         0
      1076         1         0      1079         1         0      1082         1         0
      1085         1         0      1088         1         0      1092         2         0
      1108         2         0      1119         1         0      1123         1         0
      1127         1         0      1129         1         0      1131         1         0
      1134         1         0      1137         1         0      1140         1         0
      1143         1         0      1146         1         0      1149         1         0
      1152         1         0      1155         1         0      1158         1         0
      1161         1         0      1164         1         0      1167         1         0
      1171         1         0      1176         1         0      1179         1         0
      1182         1         0      1185         1         0      1188         1         0
      1191         1         0      1194         1         0      1196         1         0
      1198         1         0      1201         1         0      1204         1         0
      1207         1         0      1210         1         0      1213         1         0
      1216         1         0      1219         1         0      1223         2         0
      1230         2         0      1241         1         0      1249         1         0
      1258         1         0      1261         1         0      1264         1         0
      1267         1         0      1270         1         0      1273         1         0
      1276         1         0      1278         1         0      1280         1         0
      1283         1         0      1286         1         0      1289         1         0
      1292         1         0      1295         1         0      1298         1         0
      1301         1         0      1305         1         0      1308         1         0
      1311         1         0      1314         1         0      1317         1         0
      1320         1         0      1323         1         0      1326         1         0
      1329         1         0      1332         1         0      1335         1         0
      1338         1         0      1341         1         0      1344         1         0
      1347         1         0      1350         1         0      1354         2         0
      1370         2         0      1381         1         0      1385         1         0
      1389         1         0      1391         1         0      1393         1         0
      1396         1         0      1399         1         0      1402         1         0
      1405         1         0      1408         1         0      1411         1         0
      1414         1         0      1417         1         0      1420         1         0
      1423         1         0      1426         1         0      1429         1         0
      1433         1         0      1438         1         0      1441         1         0
      1444         1         0      1447         1         0      1450         1         0
      1453         1         0      1456         1         0      1458         1         0
      1460         1         0      1463         1         0      1466         1         0
      1469         1         0      1472         1         0      1475         1         0
      1478         1         0      1481         1         0      1485         2         0
      1501         2         0      1512         1         0      1516         1         0
      1520         1         0      1522         1         0      1524         1         0
      1527         1         0      1530         1         0      1533         1         0
      1536         1         0      1539         1         0      1542         1         0
      1545         1         0      1548         1         0      1551         1         0
      1554         1         0      1557         1         0      1560         1         0
      1564         1         0      1569         1         0      1572         1         0
      1575         1         0      1578         1         0      1581         1         0
      1584         1         0      1587         1         0      1589         1         0
      1591         1         0      1594         1         0      1597         1         0
      1600         1         0      1603         1         0      1606         1         0
      1609         1         0      1612         1         0      1616         2         0
      1623         2         0      1634         1         0      1642         1         0
      1651         1         0      1654         1         0      1657         1         0
      1660         1         0      1663         1         0      1666         1         0
      1669         1         0      1671         1         0      1673         1         0
      1676         1         0      1679         1         0      1682         1         0
      1685         1         0      1688         1         0      1691         1         0
      1694         1         0      1698         1         0      1701         1         0
      1704         1         0      1707         1         0      1710         1         0
      1713         1         0      1716         1         0      1719         1         0
      1722         1         0      1725         1         0      1728         1         0
      1731         1         0      1734         1         0      1737         1         0
      1740         1         0      1743         1         0      1747         2         0
      1753         2         0      1756         2         0      1767         1         0
      1775         1         0      1784         1         0      1787         1         0
      1790         1         0      1792         1         0      1794         1         0
      1797         1         0      1799         1         0      1801         1         0
      1804         1         0      1806         1         0      1808         1         0
      1811         1         0      1813         1         0      1815         1         0
      1818         1         0      1821         1         0      1824         1         0
      1827         1         0      1831         1         0      1834         1         0
      1837         1         0      1840         1         0      1843         1         0
      1846         1         0      1849         1         0      1852         1         0
      1855         1         0      1858         1         0      1861         1         0
      1864         1         0      1867         1         0      1870         1         0
      1873         1         0      1876         1         0      1880         2         0
      1896         2         0      1907         1         0      1915         1         0
      1924         1         0      1927         1         0      1930         1         0
      1932         1         0      1934         1         0      1937         1         0
      1939         1         0      1941         1         0      1944         1         0
      1946         1         0      1948         1         0      1951         1         0
      1953         1         0      1955         1         0      1958         1         0
      1961         2         0      1964         1         0      1967         2         0
      1971         1         0      1974         1         0      1977         1         0
      1980         1         0      1983         1         0      1986         1         0
      1989         1         0      1992         1         0      1995         1         0
      1998         1         0      2001         1         0      2004         1         0
      2007         1         0      2010         1         0      2013         1         0
      2016         1         0      2020         1         0      2024         1         0
      2027         1         0      2030         1         0      2033         1         0
      2035         1         0      2037         1         0      2040         1         0
      2043         1         0      2045         0         0      2046         1         0
      2050         1         0      2053         1         0      2056         1         0
      2058         0         0      2059         1         0      2063         1         0
      2066         1         0      2069         1         0      2071         1         0
      2075         1         0      2078         1         0      2081         1         0
      2084         1         0      2086         1         0      2090         1         0
      2094         2         0      2110         2         0      2121         1         0
      2125         1         0      2129         1         0      2131         1         0
      2133         1         0      2136         1         0      2139         1         0
      2142         1         0      2145         1         0      2148         1         0
      2151         1         0      2154         1         0      2157         1         0
      2160         1         0      2163         1         0      2166         1         0
      2169         1         0      2173         1         0      2178         1         0
      2181         1         0      2184         1         0      2187         1         0
      2190         1         0      2193         1         0      2196         1         0
      2198         1         0      2200         1         0      2203         1         0
      2206         1         0      2209         1         0      2212         1         0
      2215         1         0      2218         1         0      2221         1         0
      2225         2         0      2241         2         0      2252         1         0
      2260         1         0      2269         1         0      2272         1         0
      2275         1         0      2278         1         0      2281         1         0
      2284         1         0      2287         1         0      2289         1         0
      2291         1         0      2294         1         0      2296         1         0
      2298         1         0      2301         1         0      2304         1         0
      2307         1         0      2310         1         0      2314         1         0
      2317         1         0      2320         1         0      2323         1         0
      2326         1         0      2329         1         0      2332         1         0
      2335         1         0      2338         1         0      2341         1         0
      2344         1         0      2347         1         0      2350         1         0
      2353         1         0      2356         1         0      2359         1         0
      2363         1         0      2367         1         0      2370         1         0
      2373         1         0      2376         1         0      2378         1         0
      2380         1         0      2383         1         0      2386         1         0
      2388         0         0      2389         1         0      2393         1         0
      2396         1         0      2399         1         0      2401         0         0
      2402         1         0      2406         1         0      2409         1         0
      2412         1         0      2414         1         0      2418         1         0
      2421         1         0      2424         1         0      2427         1         0
      2429         1         0      2433         1         0      2437         1         0
      2441         1         0      2444         1         0      2447         1         0
      2450         1         0      2452         1         0      2454         1         0
      2457         1         0      2460         1         0      2462         0         0
      2463         1         0      2467         1         0      2470         1         0
      2473         1         0      2475         0         0      2476         1         0
      2480         1         0      2483         1         0      2486         1         0
      2488         1         0      2492         1         0      2495         1         0
      2498         1         0      2501         1         0      2503         1         0
      2507         1         0      2511         2         0      2518         2         0
      2529         1         0      2537         1         0      2546         1         0
      2549         1         0      2552         1         0      2554         1         0
      2556         1         0      2559         1         0      2561         1         0
      2563         1         0      2566         1         0      2568         1         0
      2570         1         0      2573         1         0      2575         1         0
      2577         1         0      2580         1         0      2583         1         0
      2586         1         0      2589         1         0      2593         1         0
      2596         1         0      2599         1         0      2602         1         0
      2605         1         0      2608         1         0      2611         1         0
      2614         1         0      2617         1         0      2620         1         0
      2623         1         0      2626         1         0      2629         1         0
      2632         1         0      2635         1         0      2638         1         0
      2642         2         0      2658         2         0      2669         1         0
      2673         1         0      2677         1         0      2679         1         0
      2681         1         0      2684         1         0      2687         1         0
      2690         1         0      2693         1         0      2696         1         0
      2699         1         0      2702         1         0      2705         1         0
      2708         1         0      2711         1         0      2714         1         0
      2717         1         0      2721         1         0      2726         1         0
      2729         1         0      2732         1         0      2735         1         0
      2738         1         0      2741         1         0      2744         1         0
      2746         1         0      2748         1         0      2751         1         0
      2754         1         0      2757         1         0      2760         1         0
      2763         1         0      2766         1         0      2769         1         0
      2773         1         0      2777         1         0      2780         1         0
      2783         1         0      2786         1         0      2788         1         0
      2790         1         0      2793         1         0      2796         1         0
      2798         0         0      2799         1         0      2803         1         0
      2806         1         0      2809         1         0      2811         0         0
      2812         1         0      2816         1         0      2819         1         0
      2822         1         0      2824         1         0      2828         1         0
      2831         1         0      2834         1         0      2837         1         0
      2839         1         0      2843         1         0      2847         2         0
      2863         2         0      2874         1         0      2878         1         0
      2882         1         0      2884         1         0      2886         1         0
      2889         1         0      2892         1         0      2895         1         0
      2898         1         0      2901         1         0      2904         1         0
      2907         1         0      2910         1         0      2913         1         0
      2916         1         0      2919         1         0      2922         1         0
      2926         1         0      2931         1         0      2934         1         0
      2937         1         0      2940         1         0      2943         1         0
      2946         1         0      2949         1         0      2951         1         0
      2953         1         0      2956         1         0      2959         1         0
      2962         1         0      2965         1         0      2968         1         0
      2971         1         0      2974         1         0      2978         2         0
      2994         2         0      3005         1         0      3009         1         0
      3013         1         0      3015         1         0      3017         1         0
      3020         1         0      3023         1         0      3026         1         0
      3029         1         0      3032         1         0      3035         1         0
      3038         1         0      3041         1         0      3044         1         0
      3047         1         0      3050         1         0      3053         1         0
      3057         1         0      3062         1         0      3065         1         0
      3068         1         0      3071         1         0      3074         1         0
      3077         1         0      3080         1         0      3082         1         0
      3084         1         0      3087         1         0      3090         1         0
      3093         1         0      3096         1         0      3099         1         0
      3102         1         0      3105         1         0      3109         2         0
      3116         2         0      3127         1         0      3135         1         0
      3144         1         0      3147         1         0      3150         1         0
      3153         1         0      3156         1         0      3159         1         0
      3162         1         0      3164         1         0      3166         1         0
      3169         1         0      3172         1         0      3175         1         0
      3178         1         0      3181         1         0      3184         1         0
      3187         1         0      3191         1         0      3194         1         0
      3197         1         0      3200         1         0      3203         1         0
      3206         1         0      3209         1         0      3212         1         0
      3215         1         0      3218         1         0      3221         1         0
      3224         1         0      3227         1         0      3230         1         0
      3233         1         0      3236         1         0      3240         2         0
      3256         2         0      3267         1         0      3271         1         0
      3275         1         0      3277         1         0      3279         1         0
      3282         1         0      3285         1         0      3288         1         0
      3291         1         0      3294         1         0      3297         1         0
      3300         1         0      3303         1         0      3306         1         0
      3309         1         0      3312         1         0      3315         1         0
      3319         1         0      3324         1         0      3327         1         0
      3330         1         0      3333         1         0      3336         1         0
      3339         1         0      3342         1         0      3344         1         0
      3346         1         0      3349         1         0      3352         1         0
      3355         1         0      3358         1         0      3361         1         0
      3364         1         0      3367         1         0      3371         2         0
      3387         2         0      3398         1         0      3402         1         0
      3406         1         0      3408         1         0      3410         1         0
      3413         1         0      3416         1         0      3419         1         0
      3422         1         0      3425         1         0      3428         1         0
      3431         1         0      3434         1         0      3437         1         0
      3440         1         0      3443         1         0      3446         1         0
      3450         1         0      3455         1         0      3458         1         0
      3461         1         0      3464         1         0      3467         1         0
      3470         1         0      3473         1         0      3475         1         0
      3477         1         0      3480         1         0      3483         1         0
      3486         1         0      3489         1         0      3492         1         0
      3495         1         0      3498         1         0      3502         2         0
      3509         2         0      3520         1         0      3528         1         0
      3537         1         0      3540         1         0      3543         1         0
      3546         1         0      3549         1         0      3552         1         0
      3555         1         0      3557         1         0      3559         1         0
      3562         1         0      3565         1         0      3568         1         0
      3571         1         0      3574         1         0      3577         1         0
      3580         1         0      3584         1         0      3587         1         0
      3590         1         0      3593         1         0      3596         1         0
      3599         1         0      3602         1         0      3605         1         0
      3608         1         0      3611         1         0      3614         1         0
      3617         1         0      3620         1         0      3623         1         0
      3626         1         0      3629         1         0      3633         2         0
      3649         2         0      3660         1         0      3664         1         0
      3668         1         0      3670         1         0      3672         1         0
      3675         1         0      3678         1         0      3681         1         0
      3684         1         0      3687         1         0      3690         1         0
      3693         1         0      3696         1         0      3699         1         0
      3702         1         0      3705         1         0      3708         1         0
      3712         1         0      3717         1         0      3720         1         0
      3723         1         0      3726         1         0      3729         1         0
      3732         1         0      3735         1         0      3737         1         0
      3739         1         0      3742         1         0      3745         1         0
      3748         1         0      3751         1         0      3754         1         0
      3757         1         0      3760         1         0      3764         2         0
      3780         2         0      3791         1         0      3795         1         0
      3799         1         0      3801         1         0      3803         1         0
      3806         1         0      3809         1         0      3812         1         0
      3815         1         0      3818         1         0      3821         1         0
      3824         1         0      3827         1         0      3830         1         0
      3833         1         0      3836         1         0      3839         1         0
      3843         1         0      3848         1         0      3851         1         0
      3854         1         0      3857         1         0      3860         1         0
      3863         1         0      3866         1         0      3868         1         0
      3870         1         0      3873         1         0      3876         1         0
      3879         1         0      3882         1         0      3885         1         0
      3888         1         0      3891         1         0      3895         2         0
      3901         2         0      3904         2         0      3915         1         0
      3923         1         0      3932         1         0      3935         1         0
      3938         1         0      3940         1         0      3942         1         0
      3945         1         0      3947         1         0      3949         1         0
      3952         1         0      3954         1         0      3956         1         0
      3959         1         0      3961         1         0      3963         1         0
      3966         1         0      3969         1         0      3972         1         0
      3975         1         0      3979         1         0      3982         1         0
      3985         1         0      3988         1         0      3991         1         0
      3994         1         0      3997         1         0      4000         1         0
      4003         1         0      4006         1         0      4009         1         0
      4012         1         0      4015         1         0      4018         1         0
      4021         1         0      4024         1         0      4028         1         0
      4032         1         0      4035         1         0      4038         1         0
      4041         1         0      4043         1         0      4045         1         0
      4048         1         0      4051         1         0      4053         0         0
      4054         1         0      4058         1         0      4061         1         0
      4064         1         0      4066         0         0      4067         1         0
      4071         1         0      4074         1         0      4077         1         0
      4079         1         0      4083         1         0      4086         1         0
      4089         1         0      4092         1         0      4094         1         0
      4098         1         0      4102         2         0      4109         2         0
      4120         1         0      4128         1         0      4137         1         0
      4140         1         0      4143         1         0      4145         1         0
      4147         1         0      4150         1         0      4152         1         0
      4154         1         0      4157         1         0      4159         1         0
      4161         1         0      4164         1         0      4166         1         0
      4168         1         0      4171         1         0      4174         1         0
      4177         1         0      4180         1         0      4184         1         0
      4187         1         0      4190         1         0      4193         1         0
      4196         1         0      4199         1         0      4202         1         0
      4205         1         0      4208         1         0      4211         1         0
      4214         1         0      4217         1         0      4220         1         0
      4223         1         0      4226         1         0      4229         1         0
      4233         1         0      4237         1         0      4241         1         0
      4245         1         0      4249         1         0      4253         2         0
      4263         1         0      4271         1         0      4280         1         0
      4283         1         0      4286         1         0      4288         1         0
      4290         1         0      4293         1         0      4295         1         0
      4297         1         0      4300         1         0      4302         1         0
      4304         1         0      4307         1         0      4309         1         0
      4311         1         0      4314         1         0      4317         1         0
      4320         1         0      4323         1         0      4327         1         0
      4330         1         0      4333         1         0      4336         1         0
      4339         1         0      4342         1         0      4345         1         0
      4348         1         0      4351         1         0      4354         1         0
      4357         1         0      4360         1         0      4363         1         0
      4366         1         0      4369         1         0      4372         1         0
      4376         2         0      4383         2         0      4394         1         0
      4402         1         0      4411         1         0      4414         1         0
      4417         1         0      4419         1         0      4421         1         0
      4424         1         0      4426         1         0      4428         1         0
      4431         1         0      4433         1         0      4435         1         0
      4438         1         0      4440         1         0      4442         1         0
      4445         1         0      4448         1         0      4451         1         0
      4454         1         0      4458         1         0      4461         1         0
      4464         1         0      4467         1         0      4470         1         0
      4473         1         0      4476         1         0      4479         1         0
      4482         1         0      4485         1         0      4488         1         0
      4491         1         0      4494         1         0      4497         1         0
      4500         1         0      4503         1         0      4507         2         0
      4514         2         0      4525         1         0      4533         1         0
      4542         1         0      4545         1         0      4548         1         0
      4550         1         0      4552         1         0      4555         1         0
      4557         1         0      4559         1         0      4562         1         0
      4564         1         0      4566         1         0      4569         1         0
      4571         1         0      4573         1         0      4576         1         0
      4579         1         0      4582         1         0      4585         1         0
      4589         1         0      4592         1         0      4595         1         0
      4598         1         0      4601         1         0      4604         1         0
      4607         1         0      4610         1         0      4613         1         0
      4616         1         0      4619         1         0      4622         1         0
      4625         1         0      4628         1         0      4631         1         0
      4634         1         0      4638         1         0      4642         1         0
      4645         1         0      4648         1         0      4651         1         0
      4653         1         0      4655         1         0      4658         1         0
      4661         1         0      4663         0         0      4664         1         0
      4668         1         0      4671         1         0      4674         1         0
      4676         0         0      4677         1         0      4681         1         0
      4684         1         0      4687         1         0      4689         1         0
      4693         1         0      4696         1         0      4699         1         0
      4702         1         0      4704         1         0      4708         1         0
      4712         2         0      4719         2         0      4730         1         0
      4738         1         0      4747         1         0      4750         1         0
      4753         1         0      4755         1         0      4757         1         0
      4760         1         0      4762         1         0      4764         1         0
      4767         1         0      4769         1         0      4771         1         0
      4774         1         0      4776         1         0      4778         1         0
      4781         1         0      4784         1         0      4787         1         0
      4790         1         0      4794         1         0      4797         1         0
      4800         1         0      4803         1         0      4806         1         0
      4809         1         0      4812         1         0      4815         1         0
      4818         1         0      4821         1         0      4824         1         0
      4827         1         0      4830         1         0      4833         1         0
      4836         1         0      4839         1         0      4843         2         0
      4859         2         0      4870         1         0      4874         1         0
      4878         1         0      4880         1         0      4882         1         0
      4885         1         0      4888         1         0      4891         1         0
      4894         1         0      4897         1         0      4900         1         0
      4903         1         0      4906         1         0      4909         1         0
      4912         1         0      4915         1         0      4918         1         0
      4922         1         0      4927         1         0      4930         1         0
      4933         1         0      4936         1         0      4939         1         0
      4942         1         0      4945         1         0      4947         1         0
      4949         1         0      4952         1         0      4955         1         0
      4958         1         0      4961         1         0      4964         1         0
      4967         1         0      4970         1         0      4974         2         0
      4981         2         0      4992         1         0      5000         1         0
      5009         1         0      5012         1         0      5015         1         0
      5018         1         0      5021         1         0      5024         1         0
      5027         1         0      5029         1         0      5031         1         0
      5034         1         0      5037         1         0      5040         1         0
      5043         1         0      5046         1         0      5049         1         0
      5052         1         0      5056         1         0      5059         1         0
      5062         1         0      5065         1         0      5068         1         0
      5071         1         0      5074         1         0      5077         1         0
      5080         1         0      5083         1         0      5086         1         0
      5089         1         0      5092         1         0      5095         1         0
      5098         1         0      5101         1         0      5105         1         0
      5109         1         0      5112         1         0      5115         1         0
      5118         1         0      5120         1         0      5122         1         0
      5125         1         0      5128         1         0      5130         0         0
      5131         1         0      5135         1         0      5138         1         0
      5141         1         0      5143         0         0      5144         1         0
      5148         1         0      5151         1         0      5154         1         0
      5156         1         0      5160         1         0      5163         1         0
      5166         1         0      5169         1         0      5171         1         0
      5175         1         0      5179         1         0      5183         1         0
      5186         1         0      5189         1         0      5192         1         0
      5194         1         0      5196         1         0      5199         1         0
      5202         1         0      5204         0         0      5205         1         0
      5209         1         0      5212         1         0      5215         1         0
      5217         0         0      5218         1         0      5222         1         0
      5225         1         0      5228         1         0      5230         1         0
      5234         1         0      5237         1         0      5240         1         0
      5243         1         0      5245         1         0      5249         1         0
      5253         2         0      5260         2         0      5271         1         0
      5279         1         0      5288         1         0      5291         1         0
      5294         1         0      5296         1         0      5298         1         0
      5301         1         0      5303         1         0      5305         1         0
      5308         1         0      5310         1         0      5312         1         0
      5315         1         0      5317         1         0      5319         1         0
      5322         1         0      5325         1         0      5328         1         0
      5331         1         0      5335         1         0      5338         1         0
      5341         1         0      5344         1         0      5347         1         0
      5350         1         0      5353         1         0      5356         1         0
      5359         1         0      5362         1         0      5365         1         0
      5368         1         0      5371         1         0      5374         1         0
      5377         1         0      5380         1         0      5384         1         0
      5388         1         0      5391         1         0      5394         1         0
      5397         1         0      5399         1         0      5401         1         0
      5404         1         0      5407         1         0      5409         0         0
      5410         1         0      5414         1         0      5417         1         0
      5420         1         0      5422         0         0      5423         1         0
      5427         1         0      5430         1         0      5433         1         0
      5435         1         0      5439         1         0      5442         1         0
      5445         1         0      5448         1         0      5450         1         0
      5454         1         0      5458         2         0      5464         2         0
      5467         2         0      5478         1         0      5486         1         0
      5495         1         0      5498         1         0      5501         1         0
      5503         1         0      5505         1         0      5508         1         0
      5510         1         0      5512         1         0      5515         1         0
      5517         1         0      5519         1         0      5522         1         0
      5524         1         0      5526         1         0      5529         1         0
      5532         1         0      5535         1         0      5538         1         0
      5542         1         0      5545         1         0      5548         1         0
      5551         1         0      5554         1         0      5557         1         0
      5560         1         0      5563         1         0      5566         1         0
      5569         1         0      5572         1         0      5575         1         0
      5578         1         0      5581         1         0      5584         1         0
      5587         1         0      5591         2         0      5607         2         0
      5618         1         0      5626         1         0      5635         1         0
      5638         1         0      5641         1         0      5644         1         0
      5647         1         0      5650         1         0      5653         1         0
      5655         1         0      5657         1         0      5660         1         0
      5663         1         0      5666         1         0      5669         1         0
      5672         1         0      5675         1         0      5678         1         0
      5682         1         0      5685         1         0      5688         1         0
      5691         1         0      5694         1         0      5697         1         0
      5700         1         0      5703         1         0      5706         1         0
      5709         1         0      5712         1         0      5715         1         0
      5718         1         0      5721         1         0      5725         2         0
      5731         2         0      5734         2         0      5745         1         0
      5753         1         0      5762         1         0      5765         1         0
      5768         1         0      5770         1         0      5772         1         0
      5775         1         0      5777         1         0      5779         1         0
      5782         1         0      5784         1         0      5786         1         0
      5789         1         0      5791         1         0      5793         1         0
      5796         1         0      5799         1         0      5802         1         0
      5805         1         0      5809         1         0      5812         1         0
      5815         1         0      5818         1         0      5821         1         0
      5824         1         0      5827         1         0      5830         1         0
      5833         1         0      5836         1         0      5839         1         0
      5842         1         0      5845         1         0      5848         1         0
      5851         1         0      5854         1         0      5858         2         0
      5874         2         0      5885         1         0      5889         1         0
      5893         1         0      5895         1         0      5897         1         0
      5900         1         0      5903         1         0      5906         1         0
      5909         1         0      5912         1         0      5915         1         0
      5918         1         0      5921         1         0      5924         1         0
      5927         1         0      5930         1         0      5933         1         0
      5937         1         0      5942         1         0      5945         1         0
      5948         1         0      5951         1         0      5954         1         0
      5957         1         0      5960         1         0      5962         1         0
      5964         1         0      5967         1         0      5970         1         0
      5973         1         0      5976         1         0      5979         1         0
      5982         1         0      5985         1         0      5989         1         0
      5993         1         0      5996         1         0      5999         1         0
      6002         1         0      6004         1         0      6006         1         0
      6009         1         0      6012         1         0      6014         0         0
      6015         1         0      6019         1         0      6022         1         0
      6025         1         0      6027         0         0      6028         1         0
      6032         1         0      6035         1         0      6038         1         0
      6040         1         0      6044         1         0      6047         1         0
      6050         1         0      6053         1         0      6055         1         0
      6059         1         0      6063         1         0      6067         1         0
      6070         1         0      6073         1         0      6076         1         0
      6078         1         0      6080         1         0      6083         1         0
      6086         1         0      6088         0         0      6089         1         0
      6093         1         0      6096         1         0      6099         1         0
      6101         0         0      6102         1         0      6106         1         0
      6109         1         0      6112         1         0      6114         1         0
      6118         1         0      6121         1         0      6124         1         0
      6127         1         0      6129         1         0      6133         1         0
      6137         1         0      6141         1         0      6144         1         0
      6147         1         0      6150         1         0      6152         1         0
      6154         1         0      6157         1         0      6160         1         0
      6162         0         0      6163         1         0      6167         1         0
      6170         1         0      6173         1         0      6175         0         0
      6176         1         0      6180         1         0      6183         1         0
      6186         1         0      6188         1         0      6192         1         0
      6195         1         0      6198         1         0      6201         1         0
      6203         1         0      6207         1         0      6211         2         0
      6227         2         0      6238         1         0      6246         1         0
      6255         1         0      6258         1         0      6261         1         0
      6264         1         0      6267         1         0      6270         1         0
      6273         1         0      6275         1         0      6277         1         0
      6280         1         0      6283         1         0      6286         1         0
      6289         1         0      6292         1         0      6295         1         0
      6298         1         0      6302         1         0      6305         1         0
      6308         1         0      6311         1         0      6314         1         0
      6317         1         0      6320         1         0      6323         1         0
      6326         1         0      6329         1         0      6332         1         0
      6335         1         0      6338         1         0      6341         1         0
      6345         1         0      6349         1         0      6352         1         0
      6355         1         0      6358         1         0      6360         1         0
      6362         1         0      6365         1         0      6368         1         0
      6370         0         0      6371         1         0      6375         1         0
      6378         1         0      6381         1         0      6383         0         0
      6384         1         0      6388         1         0      6391         1         0
      6394         1         0      6396         1         0      6400         1         0
      6403         1         0      6406         1         0      6409         1         0
      6411         1         0      6415         1         0      6419         2         0
      6435         2         0      6446         1         0      6450         1         0
      6454         1         0      6456         1         0      6458         1         0
      6461         1         0      6464         1         0      6467         1         0
      6470         1         0      6473         1         0      6476         1         0
      6479         1         0      6482         1         0      6485         1         0
      6488         1         0      6491         1         0      6494         1         0
      6498         1         0      6503         1         0      6506         1         0
      6509         1         0      6512         1         0      6515         1         0
      6518         1         0      6521         1         0      6523         1         0
      6525         1         0      6528         1         0      6531         1         0
      6534         1         0      6537         1         0      6540         1         0
      6543         1         0      6546         1         0      6550         2         0
      6566         2         0      6577         1         0      6585         1         0
      6594         1         0      6597         1         0      6600         1         0
      6602         1         0      6604         1         0      6607         1         0
      6609         1         0      6611         1         0      6614         1         0
      6616         1         0      6618         1         0      6621         1         0
      6623         1         0      6625         1         0      6628         1         0
      6631         2         0      6634         1         0      6637         2         0
      6641         1         0      6644         1         0      6647         1         0
      6650         1         0      6653         1         0      6656         1         0
      6659         1         0      6662         1         0      6665         1         0
      6668         1         0      6671         1         0      6674         1         0
      6677         1         0      6680         1         0      6683         1         0
      6686         1         0      6690         1         0      6694         1         0
      6697         1         0      6700         1         0      6703         1         0
      6705         1         0      6707         1         0      6710         1         0
      6713         1         0      6715         0         0      6716         1         0
      6720         1         0      6723         1         0      6726         1         0
      6728         0         0      6729         1         0      6733         1         0
      6736         1         0      6739         1         0      6741         1         0
      6745         1         0      6748         1         0      6751         1         0
      6754         1         0      6756         1         0      6760         1         0
      6764         1         0      6768         1         0      6771         1         0
      6774         1         0      6777         1         0      6779         1         0
      6781         1         0      6784         1         0      6787         1         0
      6789         0         0      6790         1         0      6794         1         0
      6797         1         0      6800         1         0      6802         0         0
      6803         1         0      6807         1         0      6810         1         0
      6813         1         0      6815         1         0      6819         1         0
      6822         1         0      6825         1         0      6828         1         0
      6830         1         0      6834         1         0      6838         1         0
      6842         1         0      6845         1         0      6848         1         0
      6851         1         0      6853         1         0      6855         1         0
      6858         1         0      6861         1         0      6863         0         0
      6864         1         0      6868         1         0      6871         1         0
      6874         1         0      6876         0         0      6877         1         0
      6881         1         0      6884         1         0      6887         1         0
      6889         1         0      6893         1         0      6896         1         0
      6899         1         0      6902         1         0      6904         1         0
      6908         1         0      6912         1         0      6916         1         0
      6919         1         0      6922         1         0      6925         1         0
      6927         1         0      6929         1         0      6932         1         0
      6935         1         0      6937         0         0      6938         1         0
      6942         1         0      6945         1         0      6948         1         0
      6950         0         0      6951         1         0      6955         1         0
      6958         1         0      6961         1         0      6963         1         0
      6967         1         0      6970         1         0      6973         1         0
      6976         1         0      6978         1         0      6982         1         0
      6986         2         0      7002         2         0      7013         1         0
      7017         1         0      7021         1         0      7023         1         0
      7025         1         0      7028         1         0      7031         1         0
      7034         1         0      7037         1         0      7040         1         0
      7043         1         0      7046         1         0      7049         1         0
      7052         1         0      7055         1         0      7058         1         0
      7061         1         0      7065         1         0      7070         1         0
      7073         1         0      7076         1         0      7079         1         0
      7082         1         0      7085         1         0      7088         1         0
      7090         1         0      7092         1         0      7095         1         0
      7098         1         0      7101         1         0      7104         1         0
      7107         1         0      7110         1         0      7113         1         0
      7117         1         0      7121         1         0      7124         1         0
      7127         1         0      7130         1         0      7132         1         0
      7134         1         0      7137         1         0      7140         1         0
      7142         0         0      7143         1         0      7147         1         0
      7150         1         0      7153         1         0      7155         0         0
      7156         1         0      7160         1         0      7163         1         0
      7166         1         0      7168         1         0      7172         1         0
      7175         1         0      7178         1         0      7181         1         0
      7183         1         0      7187         1         0      7191         1         0
      7195         1         0      7198         1         0      7201         1         0
      7204         1         0      7206         1         0      7208         1         0
      7211         1         0      7214         1         0      7216         0         0
      7217         1         0      7221         1         0      7224         1         0
      7227         1         0      7229         0         0      7230         1         0
      7234         1         0      7237         1         0      7240         1         0
      7242         1         0      7246         1         0      7249         1         0
      7252         1         0      7255         1         0      7257         1         0
      7261         1         0      7265         2         0      7281         2         0
      7292         1         0      7296         1         0      7300         1         0
      7302         1         0      7304         1         0      7307         1         0
      7310         1         0      7313         1         0      7316         1         0
      7319         1         0      7322         1         0      7325         1         0
      7328         1         0      7331         1         0      7334         1         0
      7337         1         0      7340         1         0      7344         1         0
      7349         1         0      7352         1         0      7355         1         0
      7358         1         0      7361         1         0      7364         1         0
      7367         1         0      7369         1         0      7371         1         0
      7374         1         0      7377         1         0      7380         1         0
      7383         1         0      7386         1         0      7389         1         0
      7392         1         0      7396         1         0      7400         1         0
      7403         1         0      7406         1         0      7409         1         0
      7411         1         0      7413         1         0      7416         1         0
      7419         1         0      7421         0         0      7422         1         0
      7426         1         0      7429         1         0      7432         1         0
      7434         0         0      7435         1         0      7439         1         0
      7442         1         0      7445         1         0      7447         1         0
      7451         1         0      7454         1         0      7457         1         0
      7460         1         0      7462         1         0      7466         1         0
      7470         2         0      7486         2         0      7497         1         0
      7501         1         0      7505         1         0      7507         1         0
      7509         1         0      7512         1         0      7515         1         0
      7518         1         0      7521         1         0      7524         1         0
      7527         1         0      7530         1         0      7533         1         0
      7536         1         0      7539         1         0      7542         1         0
      7545         1         0      7549         1         0      7554         1         0
      7557         1         0      7560         1         0      7563         1         0
      7566         1         0      7569         1         0      7572         1         0
      7574         1         0      7576         1         0      7579         1         0
      7582         1         0      7585         1         0      7588         1         0
      7591         1         0      7594         1         0      7597         1         0
      7601         1         0      7605         1         0      7608         1         0
      7611         1         0      7614         1         0      7616         1         0
      7618         1         0      7621         1         0      7624         1         0
      7626         0         0      7627         1         0      7631         1         0
      7634         1         0      7637         1         0      7639         0         0
      7640         1         0      7644         1         0      7647         1         0
      7650         1         0      7652         1         0      7656         1         0
      7659         1         0      7662         1         0      7665         1         0
      7667         1         0      7671         1         0      7675         2         0
      7691         2         0      7702         1         0      7710         1         0
      7719         1         0      7722         1         0      7725         1         0
      7727         1         0      7729         1         0      7732         1         0
      7734         1         0      7736         1         0      7739         1         0
      7741         1         0      7743         1         0      7746         1         0
      7748         1         0      7750         1         0      7753         1         0
      7756         2         0      7759         1         0      7762         2         0
      7766         1         0      7769         1         0      7772         1         0
      7775         1         0      7778         1         0      7781         1         0
      7784         1         0      7787         1         0      7790         1         0
      7793         1         0      7796         1         0      7799         1         0
      7802         1         0      7805         1         0      7808         1         0
      7811         1         0      7815         2         0      7822         2         0
      7833         1         0      7841         1         0      7850         1         0
      7853         1         0      7856         1         0      7859         1         0
      7862         1         0      7865         1         0      7868         1         0
      7870         1         0      7872         1         0      7875         1         0
      7878         1         0      7881         1         0      7884         1         0
      7887         1         0      7890         1         0      7893         1         0
      7897         1         0      7900         1         0      7903         1         0
      7906         1         0      7909         1         0      7912         1         0
      7915         1         0      7918         1         0      7921         1         0
      7924         1         0      7927         1         0      7930         1         0
      7933         1         0      7936         1         0      7939         1         0
      7942         1         0      7946         2         0      7953         2         0
      7964         1         0      7972         1         0      7981         1         0
      7984         1         0      7987         1         0      7989         1         0
      7991         1         0      7994         1         0      7996         1         0
      7998         1         0      8001         1         0      8003         1         0
      8005         1         0      8008         1         0      8010         1         0
      8012         1         0      8015         1         0      8018         1         0
      8021         1         0      8024         1         0      8028         1         0
      8031         1         0      8034         1         0      8037         1         0
      8040         1         0      8043         1         0      8046         1         0
      8049         1         0      8052         1         0      8055         1         0
      8058         1         0      8061         1         0      8064         1         0
      8067         1         0      8070         1         0      8073         1         0
      8077         2         0      8093         2         0      8104         1         0
      8112         1         0      8121         1         0      8124         1         0
      8127         1         0      8130         1         0      8133         1         0
      8136         1         0      8139         1         0      8141         1         0
      8143         1         0      8146         1         0      8148         1         0
      8150         1         0      8153         1         0      8156         1         0
      8159         1         0      8162         1         0      8166         1         0
      8169         1         0      8172         1         0      8175         1         0
      8178         1         0      8181         1         0      8184         1         0
      8187         1         0      8190         1         0      8193         1         0
      8196         1         0      8199         1         0      8202         1         0
      8205         1         0      8208         1         0      8211         1         0
      8215         2         0      8231         2         0      8242         1         0
      8250         1         0      8259         1         0      8262         1         0
      8265         1         0      8268         1         0      8271         1         0
      8274         1         0      8277         1         0      8279         1         0
      8281         1         0      8284         1         0      8286         1         0
      8288         1         0      8291         1         0      8294         1         0
      8297         1         0      8300         1         0      8304         1         0
      8307         1         0      8310         1         0      8313         1         0
      8316         1         0      8319         1         0      8322         1         0
      8325         1         0      8328         1         0      8331         1         0
      8334         1         0      8337         1         0      8340         1         0
      8343         1         0      8346         1         0      8349         1         0
      8353         2         0      8369         2         0      8380         1         0
      8384         1         0      8388         1         0      8390         1         0
      8392         1         0      8395         1         0      8398         1         0
      8401         1         0      8404         1         0      8407         1         0
      8410         1         0      8413         1         0      8416         1         0
      8419         1         0      8422         1         0      8425         1         0
      8428         1         0      8432         1         0      8437         1         0
      8440         1         0      8443         1         0      8446         1         0
      8449         1         0      8452         1         0      8455         1         0
      8457         1         0      8459         1         0      8462         1         0
      8465         1         0      8468         1         0      8471         1         0
      8474         1         0      8477         1         0      8480         1         0
      8484         1         0      8488         1         0      8491         1         0
      8494         1         0      8497         1         0      8499         1         0
      8501         1         0      8504         1         0      8507         1         0
      8509         0         0      8510         1         0      8514         1         0
      8517         1         0      8520         1         0      8522         0         0
      8523         1         0      8527         1         0      8530         1         0
      8533         1         0      8535         1         0      8539         1         0
      8542         1         0      8545         1         0      8548         1         0
      8550         1         0      8554         1         0      8558         2         0
      8574         2         0      8585         1         0      8593         1         0
      8602         1         0      8605         1         0      8608         1         0
      8610         1         0      8612         1         0      8615         1         0
      8617         1         0      8619         1         0      8622         1         0
      8624         1         0      8626         1         0      8629         1         0
      8631         1         0      8633         1         0      8636         1         0
      8639         2         0      8642         1         0      8645         2         0
      8649         1         0      8652         1         0      8655         1         0
      8658         1         0      8661         1         0      8664         1         0
      8667         1         0      8670         1         0      8673         1         0
      8676         1         0      8679         1         0      8682         1         0
      8685         1         0      8688         1         0      8691         1         0
      8694         1         0      8698         2         0      8714         2         0
      8725         1         0      8729         1         0      8733         1         0
      8735         1         0      8737         1         0      8740         1         0
      8743         1         0      8746         1         0      8749         1         0
      8752         1         0      8755         1         0      8758         1         0
      8761         1         0      8764         1         0      8767         1         0
      8770         1         0      8773         1         0      8777         1         0
      8782         1         0      8785         1         0      8788         1         0
      8791         1         0      8794         1         0      8797         1         0
      8800         1         0      8802         1         0      8804         1         0
      8807         1         0      8810         1         0      8813         1         0
      8816         1         0      8819         1         0      8822         1         0
      8825         1         0      8829         2         0      8835         2         0
      8838         2         0      8849         1         0      8857         1         0
      8866         1         0      8869         1         0      8872         1         0
      8874         1         0      8876         1         0      8879         1         0
      8881         1         0      8883         1         0      8886         1         0
      8888         1         0      8890         1         0      8893         1         0
      8895         1         0      8897         1         0      8900         1         0
      8903         1         0      8906         1         0      8909         1         0
      8913         1         0      8916         1         0      8919         1         0
      8922         1         0      8925         1         0      8928         1         0
      8931         1         0      8934         1         0      8937         1         0
      8940         1         0      8943         1         0      8946         1         0
      8949         1         0      8952         1         0      8955         1         0
      8958         1         0      8962         2         0      8968         2         0
      8971         2         0      8982         1         0      8990         1         0
      8999         1         0      9002         1         0      9005         1         0
      9007         1         0      9009         1         0      9012         1         0
      9014         1         0      9016         1         0      9019         1         0
      9021         1         0      9023         1         0      9026         1         0
      9028         1         0      9030         1         0      9033         1         0
      9036         1         0      9039         1         0      9042         1         0
      9046         1         0      9049         1         0      9052         1         0
      9055         1         0      9058         1         0      9061         1         0
      9064         1         0      9067         1         0      9070         1         0
      9073         1         0      9076         1         0      9079         1         0
      9082         1         0      9085         1         0      9088         1         0
      9091         1         0      9095         1         0      9099         1         0
      9102         1         0      9105         1         0      9108         1         0
      9110         1         0      9112         1         0      9115         1         0
      9118         1         0      9120         0         0      9121         1         0
      9125         1         0      9128         1         0      9131         1         0
      9133         0         0      9134         1         0      9138         1         0
      9141         1         0      9144         1         0      9146         1         0
      9150         1         0      9153         1         0      9156         1         0
      9159         1         0      9161         1         0      9165         1         0
      9169         1         0      9173         1         0      9176         1         0
      9179         1         0      9182         1         0      9184         1         0
      9186         1         0      9189         1         0      9192         1         0
      9194         0         0      9195         1         0      9199         1         0
      9202         1         0      9205         1         0      9207         0         0
      9208         1         0      9212         1         0      9215         1         0
      9218         1         0      9220         1         0      9224         1         0
      9227         1         0      9230         1         0      9233         1         0
      9235         1         0      9239         1         0      9243         2         0
      9259         2         0      9270         1         0      9274         1         0
      9278         1         0      9280         1         0      9282         1         0
      9285         1         0      9288         1         0      9291         1         0
      9294         1         0      9297         1         0      9300         1         0
      9303         1         0      9306         1         0      9309         1         0
      9312         1         0      9315         1         0      9318         1         0
      9322         1         0      9327         1         0      9330         1         0
      9333         1         0      9336         1         0      9339         1         0
      9342         1         0      9345         1         0      9347         1         0
      9349         1         0      9352         1         0      9355         1         0
      9358         1         0      9361         1         0      9364         1         0
      9367         1         0      9370         1         0      9374         1         0
      9378         1         0      9382         1         0      9386         1         0
      9390         1         0      9394         2         0      9404         1         0
      9412         1         0      9421         1         0      9424         1         0
      9427         1         0      9429         1         0      9431         1         0
      9434         1         0      9436         1         0      9438         1         0
      9441         1         0      9443         1         0      9445         1         0
      9448         1         0      9450         1         0      9452         1         0
      9455         1         0      9458         1         0      9461         1         0
      9464         1         0      9468         1         0      9471         1         0
      9474         1         0      9477         1         0      9480         1         0
      9483         1         0      9486         1         0      9489         1         0
      9492         1         0      9495         1         0      9498         1         0
      9501         1         0      9504         1         0      9507         1         0
      9510         1         0      9513         1         0      9517         2         0
      9524         2         0      9535         1         0      9543         1         0
      9552         1         0      9555         1         0      9558         1         0
      9560         1         0      9562         1         0      9565         1         0
      9567         1         0      9569         1         0      9572         1         0
      9574         1         0      9576         1         0      9579         1         0
      9581         1         0      9583         1         0      9586         1         0
      9589         1         0      9592         1         0      9595         1         0
      9599         1         0      9602         1         0      9605         1         0
      9608         1         0      9611         1         0      9614         1         0
      9617         1         0      9620         1         0      9623         1         0
      9626         1         0      9629         1         0      9632         1         0
      9635         1         0      9638         1         0      9641         1         0
      9644         1         0      9648         2         0      9655         2         0
      9666         1         0      9674         1         0      9683         1         0
      9686         1         0      9689         1         0      9691         1         0
      9693         1         0      9696         1         0      9698         1         0
      9700         1         0      9703         1         0      9705         1         0
      9707         1         0      9710         1         0      9712         1         0
      9714         1         0      9717         1         0      9720         1         0
      9723         1         0      9726         1         0      9730         1         0
      9733         1         0      9736         1         0      9739         1         0
      9742         1         0      9745         1         0      9748         1         0
      9751         1         0      9754         1         0      9757         1         0
      9760         1         0      9763         1         0      9766         1         0
      9769         1         0      9772         1         0      9775         1         0
      9779         1         0      9783         1         0      9786         1         0
      9789         1         0      9792         1         0      9794         1         0
      9796         1         0      9799         1         0      9802         1         0
      9804         0         0      9805         1         0      9809         1         0
      9812         1         0      9815         1         0      9817         0         0
      9818         1         0      9822         1         0      9825         1         0
      9828         1         0      9830         1         0      9834         1         0
      9837         1         0      9840         1         0      9843         1         0
      9845         1         0      9849         1         0      9853         2         0
      9869         2         0      9880         1         0      9888         1         0
      9897         1         0      9900         1         0      9903         1         0
      9905         1         0      9907         1         0      9910         1         0
      9912         1         0      9914         1         0      9917         1         0
      9919         1         0      9921         1         0      9924         1         0
      9926         1         0      9928         1         0      9931         1         0
      9934         2         0      9937         1         0      9940         2         0
      9944         1         0      9947         1         0      9950         1         0
      9953         1         0      9956         1         0      9959         1         0
      9962         1         0      9965         1         0      9968         1         0
      9971         1         0      9974         1         0      9977         1         0
      9980         1         0      9983         1         0      9986         1         0
      9989         1         0      9993         2         0     10000         2         0
     10011         1         0     10019         1         0     10028         1         0
     10031         1         0     10034         1         0     10036         1         0
     10038         1         0     10041         1         0     10043         1         0
     10045         1         0     10048         1         0     10050         1         0
     10052         1         0     10055         1         0     10057         1         0
     10059         1         0     10062         1         0     10065         1         0
     10068         1         0     10071         1         0     10075         1         0
     10078         1         0     10081         1         0     10084         1         0
     10087         1         0     10090         1         0     10093         1         0
     10096         1         0     10099         1         0     10102         1         0
     10105         1         0     10108         1         0     10111         1         0
     10114         1         0     10117         1         0     10120         1         0
     10124         2         0     10131         2         0     10142         1         0
     10150         1         0     10159         1         0     10162         1         0
     10165         1         0     10167         1         0     10169         1         0
     10172         1         0     10174         1         0     10176         1         0
     10179         1         0     10181         1         0     10183         1         0
     10186         1         0     10188         1         0     10190         1         0
     10193         1         0     10196         1         0     10199         1         0
     10202         1         0     10206         1         0     10209         1         0
     10212         1         0     10215         1         0     10218         1         0
     10221         1         0     10224         1         0     10227         1         0
     10230         1         0     10233         1         0     10236         1         0
     10239         1         0     10242         1         0     10245         1         0
     10248         1         0     10251         1         0     10255         2         0
     10262         2         0     10273         1         0     10281         1         0
     10290         1         0     10293         1         0     10296         1         0
     10298         1         0     10300         1         0     10303         1         0
     10305         1         0     10307         1         0     10310         1         0
     10312         1         0     10314         1         0     10317         1         0
     10319         1         0     10321         1         0     10324         1         0
     10327         1         0     10330         1         0     10333         1         0
     10337         1         0     10340         1         0     10343         1         0
     10346         1         0     10349         1         0     10352         1         0
     10355         1         0     10358         1         0     10361         1         0
     10364         1         0     10367         1         0     10370         1         0
     10373         1         0     10376         1         0     10379         1         0
     10382         1         0     10386         2         0     10392         2         0
     10395         2         0     10406         1         0     10414         1         0
     10423         1         0     10426         1         0     10429         1         0
     10431         1         0     10433         1         0     10436         1         0
     10438         1         0     10440         1         0     10443         1         0
     10445         1         0     10447         1         0     10450         1         0
     10452         1         0     10454         1         0     10457         1         0
     10460         1         0     10463         1         0     10466         1         0
     10470         1         0     10473         1         0     10476         1         0
     10479         1         0     10482         1         0     10485         1         0
     10488         1         0     10491         1         0     10494         1         0
     10497         1         0     10500         1         0     10503         1         0
     10506         1         0     10509         1         0     10512         1         0
     10515         1         0     10519         1         0     10523         1         0
     10526         1         0     10529         1         0     10532         1         0
     10534         1         0     10536         1         0     10539         1         0
     10542         1         0     10544         0         0     10545         1         0
     10549         1         0     10552         1         0     10555         1         0
     10557         0         0     10558         1         0     10562         1         0
     10565         1         0     10568         1         0     10570         1         0
     10574         1         0     10577         1         0     10580         1         0
     10583         1         0     10585         1         0     10589         1         0
     10593         2         0     10600         2         0     10611         1         0
     10619         1         0     10628         1         0     10631         1         0
     10634         1         0     10636         1         0     10638         1         0
     10641         1         0     10643         1         0     10645         1         0
     10648         1         0     10650         1         0     10652         1         0
     10655         1         0     10657         1         0     10659         1         0
     10662         1         0     10665         1         0     10668         1         0
     10671         1         0     10675         1         0     10678         1         0
     10681         1         0     10684         1         0     10687         1         0
     10690         1         0     10693         1         0     10696         1         0
     10699         1         0     10702         1         0     10705         1         0
     10708         1         0     10711         1         0     10714         1         0
     10717         1         0     10720         1         0     10724         2         0
     10730         2         0     10733         2         0     10744         1         0
     10752         1         0     10761         1         0     10764         1         0
     10767         1         0     10769         1         0     10771         1         0
     10774         1         0     10776         1         0     10778         1         0
     10781         1         0     10783         1         0     10785         1         0
     10788         1         0     10790         1         0     10792         1         0
     10795         1         0     10798         1         0     10801         1         0
     10804         1         0     10808         1         0     10811         1         0
     10814         1         0     10817         1         0     10820         1         0
     10823         1         0     10826         1         0     10829         1         0
     10832         1         0     10835         1         0     10838         1         0
     10841         1         0     10844         1         0     10847         1         0
     10850         1         0     10853         1         0     10857         2         0
     10873         2         0     10884         1         0     10888         1         0
     10892         1         0     10894         1         0     10896         1         0
     10899         1         0     10902         1         0     10905         1         0
     10908         1         0     10911         1         0     10914         1         0
     10917         1         0     10920         1         0     10923         1         0
     10926         1         0     10929         1         0     10932         1         0
     10936         1         0     10941         1         0     10944         1         0
     10947         1         0     10950         1         0     10953         1         0
     10956         1         0     10959         1         0     10961         1         0
     10963         1         0     10966         1         0     10969         1         0
     10972         1         0     10975         1         0     10978         1         0
     10981         1         0     10984         1         0     10988         2         0
     11004         2         0     11015         1         0     11023         1         0
     11032         1         0     11035         1         0     11038         1         0
     11041         1         0     11044         1         0     11047         1         0
     11050         1         0     11052         1         0     11054         1         0
     11057         1         0     11059         1         0     11061         1         0
     11064         1         0     11067         1         0     11070         1         0
     11073         1         0     11077         1         0     11080         1         0
     11083         1         0     11086         1         0     11089         1         0
     11092         1         0     11095         1         0     11098         1         0
     11101         1         0     11104         1         0     11107         1         0
     11110         1         0     11113         1         0     11116         1         0
     11119         1         0     11122         1         0     11126         2         0
     11132         2         0     11135         2         0     11146         1         0
     11154         1         0     11163         1         0     11166         1         0
     11169         1         0     11171         1         0     11173         1         0
     11176         1         0     11178         1         0     11180         1         0
     11183         1         0     11185         1         0     11187         1         0
     11190         1         0     11192         1         0     11194         1         0
     11197         1         0     11200         1         0     11203         1         0
     11206         1         0     11210         1         0     11213         1         0
     11216         1         0     11219         1         0     11222         1         0
     11225         1         0     11228         1         0     11231         1         0
     11234         1         0     11237         1         0     11240         1         0
     11243         1         0     11246         1         0     11249         1         0
     11252         1         0     11255         1         0     11259         2         0
     11266         2         0     11277         1         0     11285         1         0
     11294         1         0     11297         1         0     11300         1         0
     11303         1         0     11306         1         0     11309         1         0
     11312         1         0     11314         1         0     11316         1         0
     11319         1         0     11322         1         0     11325         1         0
     11328         1         0     11331         1         0     11334         1         0
     11337         1         0     11341         1         0     11344         1         0
     11347         1         0     11350         1         0     11353         1         0
     11356         1         0     11359         1         0     11362         1         0
     11365         1         0     11368         1         0     11371         1         0
     11374         1         0     11377         1         0     11380         1         0
     11383         1         0     11386         1         0     11390         2         0
     11406         2         0     11417         1         0     11425         1         0
     11434         1         0     11437         1         0     11440         1         0
     11442         1         0     11444         1         0     11447         1         0
     11449         1         0     11451         1         0     11454         1         0
     11456         1         0     11458         1         0     11461         1         0
     11463         1         0     11465         1         0     11468         1         0
     11471         2         0     11474         1         0     11477         2         0
     11481         1         0     11484         1         0     11487         1         0
     11490         1         0     11493         1         0     11496         1         0
     11499         1         0     11502         1         0     11505         1         0
     11508         1         0     11511         1         0     11514         1         0
     11517         1         0     11520         1         0     11523         1         0
     11526         1         0     11530         2         0     11537         2         0
     11548         1         0     11556         1         0     11565         1         0
     11568         1         0     11571         1         0     11573         1         0
     11575         1         0     11578         1         0     11580         1         0
     11582         1         0     11585         1         0     11587         1         0
     11589         1         0     11592         1         0     11594         1         0
     11596         1         0     11599         1         0     11602         1         0
     11605         1         0     11608         1         0     11612         1         0
     11615         1         0     11618         1         0     11621         1         0
     11624         1         0     11627         1         0     11630         1         0
     11633         1         0     11636         1         0     11639         1         0
     11642         1         0     11645         1         0     11648         1         0
     11651         1         0     11654         1         0     11657         1         0
     11661         2         0     11677         2         0     11688         1         0
     11692         1         0     11696         1         0     11698         1         0
     11700         1         0     11703         1         0     11706         1         0
     11709         1         0     11712         1         0     11715         1         0
     11718         1         0     11721         1         0     11724         1         0
     11727         1         0     11730         1         0     11733         1         0
     11736         1         0     11740         1         0     11745         1         0
     11748         1         0     11751         1         0     11754         1         0
     11757         1         0     11760         1         0     11763         1         0
     11765         1         0     11767         1         0     11770         1         0
     11773         1         0     11776         1         0     11779         1         0
     11782         1         0     11785         1         0     11788         1         0
     11792         2         0     11798         2         0     11801         2         0
     11812         1         0     11820         1         0     11829         1         0
     11832         1         0     11835         1         0     11837         1         0
     11839         1         0     11842         1         0     11844         1         0
     11846         1         0     11849         1         0     11851         1         0
     11853         1         0     11856         1         0     11858         1         0
     11860         1         0     11863         1         0     11866         1         0
     11869         1         0     11872         1         0     11876         1         0
     11879         1         0     11882         1         0     11885         1         0
     11888         1         0     11891         1         0     11894         1         0
     11897         1         0     11900         1         0     11903         1         0
     11906         1         0     11909         1         0     11912         1         0
     11915         1         0     11918         1         0     11921         1         0
     11925         2         0     11941         2         0     11952         1         0
     11960         1         0     11969         1         0     11972         1         0
     11975         1         0     11978         1         0     11981         1         0
     11984         1         0     11987         1         0     11989         1         0
     11991         1         0     11994         1         0     11997         1         0
     12000         1         0     12003         1         0     12006         1         0
     12009         1         0     12012         1         0     12016         1         0
     12019         1         0     12022         1         0     12025         1         0
     12028         1         0     12031         1         0     12034         1         0
     12037         1         0     12040         1         0     12043         1         0
     12046         1         0     12049         1         0     12052         1         0
     12055         1         0     12059         2         0     12066         2         0
     12077         1         0     12085         1         0     12094         1         0
     12097         1         0     12100         1         0     12102         1         0
     12104         1         0     12107         1         0     12109         1         0
     12111         1         0     12114         1         0     12116         1         0
     12118         1         0     12121         1         0     12123         1         0
     12125         1         0     12128         1         0     12131         1         0
     12134         1         0     12137         1         0     12141         1         0
     12144         1         0     12147         1         0     12150         1         0
     12153         1         0     12156         1         0     12159         1         0
     12162         1         0     12165         1         0     12168         1         0
     12171         1         0     12174         1         0     12177         1         0
     12180         1         0     12183         1         0     12186         1         0
     12190         2         0     12196         2         0     12199         2         0
     12210         1         0     12218         1         0     12227         1         0
     12230         1         0     12233         1         0     12235         1         0
     12237         1         0     12240         1         0     12242         1         0
     12244         1         0     12247         1         0     12249         1         0
     12251         1         0     12254         1         0     12256         1         0
     12258         1         0     12261         1         0     12264         1         0
     12267         1         0     12270         1         0     12274         1         0
     12277         1         0     12280         1         0     12283         1         0
     12286         1         0     12289         1         0     12292         1         0
     12295         1         0     12298         1         0     12301         1         0
     12304         1         0     12307         1         0     12310         1         0
     12313         1         0     12316         1         0     12319         1         0
     12323         1         0     12327         1         0     12330         1         0
     12333         1         0     12336         1         0     12338         1         0
     12340         1         0     12343         1         0     12346         1         0
     12348         0         0     12349         1         0     12353         1         0
     12356         1         0     12359         1         0     12361         0         0
     12362         1         0     12366         1         0     12369         1         0
     12372         1         0     12374         1         0     12378         1         0
     12381         1         0     12384         1         0     12387         1         0
     12389         1         0     12393         1         0     12397         1         0
     12401         1         0     12404         1         0     12407         1         0
     12410         1         0     12412         1         0     12414         1         0
     12417         1         0     12420         1         0     12422         0         0
     12423         1         0     12427         1         0     12430         1         0
     12433         1         0     12435         0         0     12436         1         0
     12440         1         0     12443         1         0     12446         1         0
     12448         1         0     12452         1         0     12455         1         0
     12458         1         0     12461         1         0     12463         1         0
     12467         1         0     12471         2         0     12477         2         0
     12480         2         0     12491         1         0     12499         1         0
     12508         1         0     12511         1         0     12514         1         0
     12516         1         0     12518         1         0     12521         1         0
     12523         1         0     12525         1         0     12528         1         0
     12530         1         0     12532         1         0     12535         1         0
     12537         1         0     12539         1         0     12542         1         0
     12545         1         0     12548         1         0     12551         1         0
     12555         1         0     12558         1         0     12561         1         0
     12564         1         0     12567         1         0     12570         1         0
     12573         1         0     12576         1         0     12579         1         0
     12582         1         0     12585         1         0     12588         1         0
     12591         1         0     12594         1         0     12597         1         0
     12600         1         0     12604         2         0     12611         2         0
     12622         1         0     12630         1         0     12639         1         0
     12642         1         0     12645         1         0     12647         1         0
     12649         1         0     12652         1         0     12654         1         0
     12656         1         0     12659         1         0     12661         1         0
     12663         1         0     12666         1         0     12668         1         0
     12670         1         0     12673         1         0     12676         1         0
     12679         1         0     12682         1         0     12686         1         0
     12689         1         0     12692         1         0     12695         1         0
     12698         1         0     12701         1         0     12704         1         0
     12707         1         0     12710         1         0     12713         1         0
     12716         1         0     12719         1         0     12722         1         0
     12725         1         0     12728         1         0     12731         1         0
     12735         1         0     12739         1         0     12742         1         0
     12745         1         0     12748         1         0     12750         1         0
     12752         1         0     12755         1         0     12758         1         0
     12760         0         0     12761         1         0     12765         1         0
     12768         1         0     12771         1         0     12773         0         0
     12774         1         0     12778         1         0     12781         1         0
     12784         1         0     12786         1         0     12790         1         0
     12793         1         0     12796         1         0     12799         1         0
     12801         1         0     12805         1         0     12809         1         0
     12813         1         0     12816         1         0     12819         1         0
     12822         1         0     12824         1         0     12826         1         0
     12829         1         0     12832         1         0     12834         0         0
     12835         1         0     12839         1         0     12842         1         0
     12845         1         0     12847         0         0     12848         1         0
     12852         1         0     12855         1         0     12858         1         0
     12860         1         0     12864         1         0     12867         1         0
     12870         1         0     12873         1         0     12875         1         0
     12879         1         0     12883         1         0     12887         1         0
     12890         1         0     12893         1         0     12896         1         0
     12898         1         0     12900         1         0     12903         1         0
     12906         1         0     12908         0         0     12909         1         0
     12913         1         0     12916         1         0     12919         1         0
     12921         0         0     12922         1         0     12926         1         0
     12929         1         0     12932         1         0     12934         1         0
     12938         1         0     12941         1         0     12944         1         0
     12947         1         0     12949         1         0     12953         1         0
     12957         1         0     12961         1         0     12964         1         0
     12967         1         0     12970         1         0     12972         1         0
     12974         1         0     12977         1         0     12980         1         0
     12982         0         0     12983         1         0     12987         1         0
     12990         1         0     12993         1         0     12995         0         0
     12996         1         0     13000         1         0     13003         1         0
     13006         1         0     13008         1         0     13012         1         0
     13015         1         0     13018         1         0     13021         1         0
     13023         1         0     13027         1         0     13031         2         0
     13038         2         0     13049         1         0     13057         1         0
     13066         1         0     13069         1         0     13072         1         0
     13074         1         0     13076         1         0     13079         1         0
     13081         1         0     13083         1         0     13086         1         0
     13088         1         0     13090         1         0     13093         1         0
     13095         1         0     13097         1         0     13100         1         0
     13103         1         0     13106         1         0     13109         1         0
     13113         1         0     13116         1         0     13119         1         0
     13122         1         0     13125         1         0     13128         1         0
     13131         1         0     13134         1         0     13137         1         0
     13140         1         0     13143         1         0     13146         1         0
     13149         1         0     13152         1         0     13155         1         0
     13158         1         0     13162         2         0     13178         2         0
     13189         1         0     13193         1         0     13197         1         0
     13199         1         0     13201         1         0     13204         1         0
     13207         1         0     13210         1         0     13213         1         0
     13216         1         0     13219         1         0     13222         1         0
     13225         1         0     13228         1         0     13231         1         0
     13234         1         0     13237         1         0     13241         1         0
     13246         1         0     13249         1         0     13252         1         0
     13255         1         0     13258         1         0     13261         1         0
     13264         1         0     13266         1         0     13268         1         0
     13271         1         0     13274         1         0     13277         1         0
     13280         1         0     13283         1         0     13286         1         0
     13289         1         0     13293         2         0     13309         2         0
     13320         1         0     13324         1         0     13328         1         0
     13330         1         0     13332         1         0     13335         1         0
     13338         1         0     13341         1         0     13344         1         0
     13347         1         0     13350         1         0     13353         1         0
     13356         1         0     13359         1         0     13362         1         0
     13365         1         0     13368         1         0     13372         1         0
     13377         1         0     13380         1         0     13383         1         0
     13386         1         0     13389         1         0     13392         1         0
     13395         1         0     13397         1         0     13399         1         0
     13402         1         0     13405         1         0     13408         1         0
     13411         1         0     13414         1         0     13417         1         0
     13420         1         0     13424         2         0     13440         2         0
     13451         1         0     13455         1         0     13459         1         0
     13461         1         0     13463         1         0     13466         1         0
     13469         1         0     13472         1         0     13475         1         0
     13478         1         0     13481         1         0     13484         1         0
     13487         1         0     13490         1         0     13493         1         0
     13496         1         0     13499         1         0     13503         1         0
     13508         1         0     13511         1         0     13514         1         0
     13517         1         0     13520         1         0     13523         1         0
     13526         1         0     13528         1         0     13530         1         0
     13533         1         0     13536         1         0     13539         1         0
     13542         1         0     13545         1         0     13548         1         0
     13551         1         0     13555         1         0     13559         1         0
     13562         1         0     13565         1         0     13568         1         0
     13570         1         0     13572         1         0     13575         1         0
     13578         1         0     13580         0         0     13581         1         0
     13585         1         0     13588         1         0     13591         1         0
     13593         0         0     13594         1         0     13598         1         0
     13601         1         0     13604         1         0     13606         1         0
     13610         1         0     13613         1         0     13616         1         0
     13619         1         0     13621         1         0     13625         1         0
     13629         2         0     13645         2         0     13656         1         0
     13660         1         0     13664         1         0     13666         1         0
     13668         1         0     13671         1         0     13674         1         0
     13677         1         0     13680         1         0     13683         1         0
     13686         1         0     13689         1         0     13692         1         0
     13695         1         0     13698         1         0     13701         1         0
     13704         1         0     13708         1         0     13713         1         0
     13716         1         0     13719         1         0     13722         1         0
     13725         1         0     13728         1         0     13731         1         0
     13733         1         0     13735         1         0     13738         1         0
     13741         1         0     13744         1         0     13747         1         0
     13750         1         0     13753         1         0     13756         1         0
     13760         2         0     13776         2         0     13787         1         0
     13791         1         0     13795         1         0     13797         1         0
     13799         1         0     13802         1         0     13805         1         0
     13808         1         0     13811         1         0     13814         1         0
     13817         1         0     13820         1         0     13823         1         0
     13826         1         0     13829         1         0     13832         1         0
     13835         1         0     13839         1         0     13844         1         0
     13847         1         0     13850         1         0     13853         1         0
     13856         1         0     13859         1         0     13862         1         0
     13864         1         0     13866         1         0     13869         1         0
     13872         1         0     13875         1         0     13878         1         0
     13881         1         0     13884         1         0     13887         1         0
     13891         2         0     13907         2         0     13918         1         0
     13922         1         0     13926         1         0     13928         1         0
     13930         1         0     13933         1         0     13936         1         0
     13939         1         0     13942         1         0     13945         1         0
     13948         1         0     13951         1         0     13954         1         0
     13957         1         0     13960         1         0     13963         1         0
     13966         1         0     13970         1         0     13975         1         0
     13978         1         0     13981         1         0     13984         1         0
     13987         1         0     13990         1         0     13993         1         0
     13995         1         0     13997         1         0     14000         1         0
     14003         1         0     14006         1         0     14009         1         0
     14012         1         0     14015         1         0     14018         1         0
     14022         2         0     14038         2         0     14049         1         0
     14053         1         0     14057         1         0     14059         1         0
     14061         1         0     14064         1         0     14067         1         0
     14070         1         0     14073         1         0     14076         1         0
     14079         1         0     14082         1         0     14085         1         0
     14088         1         0     14091         1         0     14094         1         0
     14097         1         0     14101         1         0     14106         1         0
     14109         1         0     14112         1         0     14115         1         0
     14118         1         0     14121         1         0     14124         1         0
     14126         1         0     14128         1         0     14131         1         0
     14134         1         0     14137         1         0     14140         1         0
     14143         1         0     14146         1         0     14149         1         0
     14153         1         0     14157         1         0     14160         1         0
     14163         1         0     14166         1         0     14168         1         0
     14170         1         0     14173         1         0     14176         1         0
     14178         0         0     14179         1         0     14183         1         0
     14186         1         0     14189         1         0     14191         0         0
     14192         1         0     14196         1         0     14199         1         0
     14202         1         0     14204         1         0     14208         1         0
     14211         1         0     14214         1         0     14217         1         0
     14219         1         0     14223         1         0     14227         1         0
     14231         1         0     14234         1         0     14237         1         0
     14240         1         0     14242         1         0     14244         1         0
     14247         1         0     14250         1         0     14252         0         0
     14253         1         0     14257         1         0     14260         1         0
     14263         1         0     14265         0         0     14266         1         0
     14270         1         0     14273         1         0     14276         1         0
     14278         1         0     14282         1         0     14285         1         0
     14288         1         0     14291         1         0     14293         1         0
     14297         1         0     14301         2         0     14317         2         0
     14328         1         0     14332         1         0     14336         1         0
     14338         1         0     14340         1         0     14343         1         0
     14346         1         0     14349         1         0     14352         1         0
     14355         1         0     14358         1         0     14361         1         0
     14364         1         0     14367         1         0     14370         1         0
     14373         1         0     14376         1         0     14380         1         0
     14385         1         0     14388         1         0     14391         1         0
     14394         1         0     14397         1         0     14400         1         0
     14403         1         0     14405         1         0     14407         1         0
     14410         1         0     14413         1         0     14416         1         0
     14419         1         0     14422         1         0     14425         1         0
     14428         1         0     14432         1         0     14436         1         0
     14439         1         0     14442         1         0     14445         1         0
     14447         1         0     14449         1         0     14452         1         0
     14455         1         0     14457         0         0     14458         1         0
     14462         1         0     14465         1         0     14468         1         0
     14470         0         0     14471         1         0     14475         1         0
     14478         1         0     14481         1         0     14483         1         0
     14487         1         0     14490         1         0     14493         1         0
     14496         1         0     14498         1         0     14502         1         0
     14506         1         0     14510         1         0     14513         1         0
     14516         1         0     14519         1         0     14521         1         0
     14523         1         0     14526         1         0     14529         1         0
     14531         0         0     14532         1         0     14536         1         0
     14539         1         0     14542         1         0     14544         0         0
     14545         1         0     14549         1         0     14552         1         0
     14555         1         0     14557         1         0     14561         1         0
     14564         1         0     14567         1         0     14570         1         0
     14572         1         0     14576         1         0     14580         1         0
     14584         1         0     14587         1         0     14590         1         0
     14593         1         0     14595         1         0     14597         1         0
     14600         1         0     14603         1         0     14605         0         0
     14606         1         0     14610         1         0     14613         1         0
     14616         1         0     14618         0         0     14619         1         0
     14623         1         0     14626         1         0     14629         1         0
     14631         1         0     14635         1         0     14638         1         0
     14641         1         0     14644         1         0     14646         1         0
     14650         1         0     14654         2         0     14661         2         0
     14672         1         0     14680         1         0     14689         1         0
     14692         1         0     14695         1         0     14697         1         0
     14699         1         0     14702         1         0     14704         1         0
     14706         1         0     14709         1         0     14711         1         0
     14713         1         0     14716         1         0     14718         1         0
     14720         1         0     14723         1         0     14726         1         0
     14729         1         0     14732         1         0     14736         1         0
     14739         1         0     14742         1         0     14745         1         0
     14748         1         0     14751         1         0     14754         1         0
     14757         1         0     14760         1         0     14763         1         0
     14766         1         0     14769         1         0     14772         1         0
     14775         1         0     14778         1         0     14781         1         0
     14785         1         0     14789         1         0     14792         1         0
     14795         1         0     14798         1         0     14800         1         0
     14802         1         0     14805         1         0     14808         1         0
     14810         0         0     14811         1         0     14815         1         0
     14818         1         0     14821         1         0     14823         0         0
     14824         1         0     14828         1         0     14831         1         0
     14834         1         0     14836         1         0     14840         1         0
     14843         1         0     14846         1         0     14849         1         0
     14851         1         0     14855         1         0     14859         2         0
     14865         2         0     14868         2         0     14879         1         0
     14887         1         0     14896         1         0     14899         1         0
     14902         1         0     14904         1         0     14906         1         0
     14909         1         0     14911         1         0     14913         1         0
     14916         1         0     14918         1         0     14920         1         0
     14923         1         0     14925         1         0     14927         1         0
     14930         1         0     14933         1         0     14936         1         0
     14939         1         0     14943         1         0     14946         1         0
     14949         1         0     14952         1         0     14955         1         0
     14958         1         0     14961         1         0     14964         1         0
     14967         1         0     14970         1         0     14973         1         0
     14976         1         0     14979         1         0     14982         1         0
     14985         1         0     14988         1         0     14992         2         0
     15008         2         0     15019         1         0     15023         1         0
     15027         1         0     15029         1         0     15031         1         0
     15034         1         0     15037         1         0     15040         1         0
     15043         1         0     15046         1         0     15049         1         0
     15052         1         0     15055         1         0     15058         1         0
     15061         1         0     15064         1         0     15067         1         0
     15071         1         0     15076         1         0     15079         1         0
     15082         1         0     15085         1         0     15088         1         0
     15091         1         0     15094         1         0     15096         1         0
     15098         1         0     15101         1         0     15104         1         0
     15107         1         0     15110         1         0     15113         1         0
     15116         1         0     15119         1         0     15123         2         0
     15139         2         0     15150         1         0     15154         1         0
     15158         1         0     15160         1         0     15162         1         0
     15165         1         0     15168         1         0     15171         1         0
     15174         1         0     15177         1         0     15180         1         0
     15183         1         0     15186         1         0     15189         1         0
     15192         1         0     15195         1         0     15198         1         0
     15202         1         0     15207         1         0     15210         1         0
     15213         1         0     15216         1         0     15219         1         0
     15222         1         0     15225         1         0     15227         1         0
     15229         1         0     15232         1         0     15235         1         0
     15238         1         0     15241         1         0     15244         1         0
     15247         1         0     15250         1         0     15254         2         0
     15270         2         0     15281         1         0     15289         1         0
     15298         1         0     15301         1         0     15304         1         0
     15307         1         0     15310         1         0     15313         1         0
     15316         1         0     15318         1         0     15320         1         0
     15323         1         0     15325         1         0     15327         1         0
     15330         1         0     15333         1         0     15336         1         0
     15339         1         0     15343         1         0     15346         1         0
     15349         1         0     15352         1         0     15355         1         0
     15358         1         0     15361         1         0     15364         1         0
     15367         1         0     15370         1         0     15373         1         0
     15376         1         0     15379         1         0     15382         1         0
     15385         1         0     15388         1         0     15392         2         0
     15408         2         0     15419         1         0     15423         1         0
     15427         1         0     15429         1         0     15431         1         0
     15434         1         0     15437         1         0     15440         1         0
     15443         1         0     15446         1         0     15449         1         0
     15452         1         0     15455         1         0     15458         1         0
     15461         1         0     15464         1         0     15467         1         0
     15471         1         0     15476         1         0     15479         1         0
     15482         1         0     15485         1         0     15488         1         0
     15491         1         0     15494         1         0     15496         1         0
     15498         1         0     15501         1         0     15504         1         0
     15507         1         0     15510         1         0     15513         1         0
     15516         1         0     15519         1         0     15523         2         0
     15539         2         0     15550         1         0     15558         1         0
     15567         1         0     15570         1         0     15573         1         0
     15575         1         0     15577         1         0     15580         1         0
     15582         1         0     15584         1         0     15587         1         0
     15589         1         0     15591         1         0     15594         1         0
     15596         1         0     15598         1         0     15601         1         0
     15604         2         0     15607         1         0     15610         2         0
     15614         1         0     15617         1         0     15620         1         0
     15623         1         0     15626         1         0     15629         1         0
     15632         1         0     15635         1         0     15638         1         0
     15641         1         0     15644         1         0     15647         1         0
     15650         1         0     15653         1         0     15656         1         0
     15659         1         0     15663         2         0     15669         2         0
     15672         2         0     15683         1         0     15691         1         0
     15700         1         0     15703         1         0     15706         1         0
     15708         1         0     15710         1         0     15713         1         0
     15715         1         0     15717         1         0     15720         1         0
     15722         1         0     15724         1         0     15727         1         0
     15729         1         0     15731         1         0     15734         1         0
     15737         1         0     15740         1         0     15743         1         0
     15747         1         0     15750         1         0     15753         1         0
     15756         1         0     15759         1         0     15762         1         0
     15765         1         0     15768         1         0     15771         1         0
     15774         1         0     15777         1         0     15780         1         0
     15783         1         0     15786         1         0     15789         1         0
     15792         1         0     15796         1         0     15800         1         0
     15803         1         0     15806         1         0     15809         1         0
     15811         1         0     15813         1         0     15816         1         0
     15819         1         0     15821         0         0     15822         1         0
     15826         1         0     15829         1         0     15832         1         0
     15834         0         0     15835         1         0     15839         1         0
     15842         1         0     15845         1         0     15847         1         0
     15851         1         0     15854         1         0     15857         1         0
     15860         1         0     15862         1         0     15866         1         0
     15870         2         0     15877         2         0     15888         1         0
     15896         1         0     15905         1         0     15908         1         0
     15911         1         0     15914         1         0     15917         1         0
     15920         1         0     15923         1         0     15925         1         0
     15927         1         0     15930         1         0     15933         1         0
     15936         1         0     15939         1         0     15942         1         0
     15945         1         0     15948         1         0     15952         1         0
     15955         1         0     15958         1         0     15961         1         0
     15964         1         0     15967         1         0     15970         1         0
     15973         1         0     15976         1         0     15979         1         0
     15982         1         0     15985         1         0     15988         1         0
     15991         1         0     15994         1         0     15997         1         0
     16001         1         0     16005         1         0     16008         1         0
     16011         1         0     16014         1         0     16016         1         0
     16018         1         0     16021         1         0     16024         1         0
     16026         0         0     16027         1         0     16031         1         0
     16034         1         0     16037         1         0     16039         0         0
     16040         1         0     16044         1         0     16047         1         0
     16050         1         0     16052         1         0     16056         1         0
     16059         1         0     16062         1         0     16065         1         0
     16067         1         0     16071         1         0     16075         2         0
     16091         2         0     16102         1         0     16110         1         0
     16119         1         0     16122         1         0     16125         1         0
     16127         1         0     16129         1         0     16132         1         0
     16134         1         0     16136         1         0     16139         1         0
     16141         1         0     16143         1         0     16146         1         0
     16148         1         0     16150         1         0     16153         1         0
     16156         2         0     16159         1         0     16162         2         0
     16166         1         0     16169         1         0     16172         1         0
     16175         1         0     16178         1         0     16181         1         0
     16184         1         0     16187         1         0     16190         1         0
     16193         1         0     16196         1         0     16199         1         0
     16202         1         0     16205         1         0     16208         1         0
     16211         1         0     16215         2         0     16221         2         0
     16224         2         0     16235         1         0     16243         1         0
     16252         1         0     16255         1         0     16258         1         0
     16260         1         0     16262         1         0     16265         1         0
     16267         1         0     16269         1         0     16272         1         0
     16274         1         0     16276         1         0     16279         1         0
     16281         1         0     16283         1         0     16286         1         0
     16289         1         0     16292         1         0     16295         1         0
     16299         1         0     16302         1         0     16305         1         0
     16308         1         0     16311         1         0     16314         1         0
     16317         1         0     16320         1         0     16323         1         0
     16326         1         0     16329         1         0     16332         1         0
     16335         1         0     16338         1         0     16341         1         0
     16344         1         0     16348         2         0     16364         2         0
     16375         1         0     16383         1         0     16392         1         0
     16395         1         0     16398         1         0     16401         1         0
     16404         1         0     16407         1         0     16410         1         0
     16412         1         0     16414         1         0     16417         1         0
     16419         1         0     16421         1         0     16424         1         0
     16427         1         0     16430         1         0     16433         1         0
     16437         1         0     16440         1         0     16443         1         0
     16446         1         0     16449         1         0     16452         1         0
     16455         1         0     16458         1         0     16461         1         0
     16464         1         0     16467         1         0     16470         1         0
     16473         1         0     16476         1         0     16479         1         0
     16482         1         0     16486         1         0     16490         1         0
     16493         1         0     16496         1         0     16499         1         0
     16501         1         0     16503         1         0     16506         1         0
     16509         1         0     16511         0         0     16512         1         0
     16516         1         0     16519         1         0     16522         1         0
     16524         0         0     16525         1         0     16529         1         0
     16532         1         0     16535         1         0     16537         1         0
     16541         1         0     16544         1         0     16547         1         0
     16550         1         0     16552         1         0     16556         1         0
     16560         2         0     16576         2         0     16587         1         0
     16595         1         0     16604         1         0     16607         1         0
     16610         1         0     16612         1         0     16614         1         0
     16617         1         0     16619         1         0     16621         1         0
     16624         1         0     16626         1         0     16628         1         0
     16631         1         0     16633         1         0     16635         1         0
     16638         1         0     16641         2         0     16644         1         0
     16647         2         0     16651         1         0     16654         1         0
     16657         1         0     16660         1         0     16663         1         0
     16666         1         0     16669         1         0     16672         1         0
     16675         1         0     16678         1         0     16681         1         0
     16684         1         0     16687         1         0     16690         1         0
     16693         1         0     16696         1         0     16700         2         0
     16716         2         0     16727         1         0     16731         1         0
     16735         1         0     16737         1         0     16739         1         0
     16742         1         0     16745         1         0     16748         1         0
     16751         1         0     16754         1         0     16757         1         0
     16760         1         0     16763         1         0     16766         1         0
     16769         1         0     16772         1         0     16775         1         0
     16779         1         0     16784         1         0     16787         1         0
     16790         1         0     16793         1         0     16796         1         0
     16799         1         0     16802         1         0     16804         1         0
     16806         1         0     16809         1         0     16812         1         0
     16815         1         0     16818         1         0     16821         1         0
     16824         1         0     16827         1         0     16831         1         0
     16835         1         0     16838         1         0     16841         1         0
     16844         1         0     16846         1         0     16848         1         0
     16851         1         0     16854         1         0     16856         0         0
     16857         1         0     16861         1         0     16864         1         0
     16867         1         0     16869         0         0     16870         1         0
     16874         1         0     16877         1         0     16880         1         0
     16882         1         0     16886         1         0     16889         1         0
     16892         1         0     16895         1         0     16897         1         0
     16901         1         0     16905         2         0     16921         2         0
     16932         1         0     16936         1         0     16940         1         0
     16942         1         0     16944         1         0     16947         1         0
     16950         1         0     16953         1         0     16956         1         0
     16959         1         0     16962         1         0     16965         1         0
     16968         1         0     16971         1         0     16974         1         0
     16977         1         0     16980         1         0     16984         1         0
     16989         1         0     16992         1         0     16995         1         0
     16998         1         0     17001         1         0     17004         1         0
     17007         1         0     17009         1         0     17011         1         0
     17014         1         0     17017         1         0     17020         1         0
     17023         1         0     17026         1         0     17029         1         0
     17032         1         0     17036         2         0     17043         2         0
     17054         1         0     17062         1         0     17071         1         0
     17074         1         0     17077         1         0     17079         1         0
     17081         1         0     17084         1         0     17086         1         0
     17088         1         0     17091         1         0     17093         1         0
     17095         1         0     17098         1         0     17100         1         0
     17102         1         0     17105         1         0     17108         1         0
     17111         1         0     17114         1         0     17118         1         0
     17121         1         0     17124         1         0     17127         1         0
     17130         1         0     17133         1         0     17136         1         0
     17139         1         0     17142         1         0     17145         1         0
     17148         1         0     17151         1         0     17154         1         0
     17157         1         0     17160         1         0     17163         1         0
     17167         2         0     17183         2         0     17194         1         0
     17198         1         0     17202         1         0     17204         1         0
     17206         1         0     17209         1         0     17212         1         0
     17215         1         0     17218         1         0     17221         1         0
     17224         1         0     17227         1         0     17230         1         0
     17233         1         0     17236         1         0     17239         1         0
     17242         1         0     17246         1         0     17251         1         0
     17254         1         0     17257         1         0     17260         1         0
     17263         1         0     17266         1         0     17269         1         0
     17271         1         0     17273         1         0     17276         1         0
     17279         1         0     17282         1         0     17285         1         0
     17288         1         0     17291         1         0     17294         1         0
     17298         1         0     17302         1         0     17305         1         0
     17308         1         0     17311         1         0     17313         1         0
     17315         1         0     17318         1         0     17321         1         0
     17323         0         0     17324         1         0     17328         1         0
     17331         1         0     17334         1         0     17336         0         0
     17337         1         0     17341         1         0     17344         1         0
     17347         1         0     17349         1         0     17353         1         0
     17356         1         0     17359         1         0     17362         1         0
     17364         1         0     17368         1         0     17372         2         0
     17388         2         0     17399         1         0     17403         1         0
     17407         1         0     17409         1         0     17411         1         0
     17414         1         0     17417         1         0     17420         1         0
     17423         1         0     17426         1         0     17429         1         0
     17432         1         0     17435         1         0     17438         1         0
     17441         1         0     17444         1         0     17447         1         0
     17451         1         0     17456         1         0     17459         1         0
     17462         1         0     17465         1         0     17468         1         0
     17471         1         0     17474         1         0     17476         1         0
     17478         1         0     17481         1         0     17484         1         0
     17487         1         0     17490         1         0     17493         1         0
     17496         1         0     17499         1         0     17503         2         0
     17509         2         0     17512         2         0     17523         1         0
     17531         1         0     17540         1         0     17543         1         0
     17546         1         0     17548         1         0     17550         1         0
     17553         1         0     17555         1         0     17557         1         0
     17560         1         0     17562         1         0     17564         1         0
     17567         1         0     17569         1         0     17571         1         0
     17574         1         0     17577         1         0     17580         1         0
     17583         1         0     17587         1         0     17590         1         0
     17593         1         0     17596         1         0     17599         1         0
     17602         1         0     17605         1         0     17608         1         0
     17611         1         0     17614         1         0     17617         1         0
     17620         1         0     17623         1         0     17626         1         0
     17629         1         0     17632         1         0     17636         2         0
     17643         2         0     17654         1         0     17662         1         0
     17671         1         0     17674         1         0     17677         1         0
     17679         1         0     17681         1         0     17684         1         0
     17686         1         0     17688         1         0     17691         1         0
     17693         1         0     17695         1         0     17698         1         0
     17700         1         0     17702         1         0     17705         1         0
     17708         1         0     17711         1         0     17714         1         0
     17718         1         0     17721         1         0     17724         1         0
     17727         1         0     17730         1         0     17733         1         0
     17736         1         0     17739         1         0     17742         1         0
     17745         1         0     17748         1         0     17751         1         0
     17754         1         0     17757         1         0     17760         1         0
     17763         1         0     17767         2         0     17783         2         0
     17794         1         0     17802         1         0     17811         1         0
     17814         1         0     17817         1         0     17820         1         0
     17823         1         0     17826         1         0     17829         1         0
     17831         1         0     17833         1         0     17836         1         0
     17839         1         0     17842         1         0     17845         1         0
     17848         1         0     17851         1         0     17854         1         0
     17858         1         0     17861         1         0     17864         1         0
     17867         1         0     17870         1         0     17873         1         0
     17876         1         0     17879         1         0     17882         1         0
     17885         1         0     17888         1         0     17891         1         0
     17894         1         0     17897         1         0     17901         2         0
     17908         2         0     17919         1         0     17927         1         0
     17936         1         0     17939         1         0     17942         1         0
     17945         1         0     17948         1         0     17951         1         0
     17954         1         0     17956         1         0     17958         1         0
     17961         1         0     17964         1         0     17967         1         0
     17970         1         0     17973         1         0     17976         1         0
     17979         1         0     17983         1         0     17986         1         0
     17989         1         0     17992         1         0     17995         1         0
     17998         1         0     18001         1         0     18004         1         0
     18007         1         0     18010         1         0     18013         1         0
     18016         1         0     18019         1         0     18022         1         0
     18025         1         0     18028         1         0     18032         1         0
     18036         1         0     18039         1         0     18042         1         0
     18045         1         0     18047         1         0     18049         1         0
     18052         1         0     18055         1         0     18057         0         0
     18058         1         0     18062         1         0     18065         1         0
     18068         1         0     18070         0         0     18071         1         0
     18075         1         0     18078         1         0     18081         1         0
     18083         1         0     18087         1         0     18090         1         0
     18093         1         0     18096         1         0     18098         1         0
     18102         1         0     18106         2         0     18122         2         0
     18133         1         0     18141         1         0     18150         1         0
     18153         1         0     18156         1         0     18159         1         0
     18162         1         0     18165         1         0     18168         1         0
     18170         1         0     18172         1         0     18175         1         0
     18177         1         0     18179         1         0     18182         1         0
     18185         1         0     18188         1         0     18191         1         0
     18195         1         0     18198         1         0     18201         1         0
     18204         1         0     18207         1         0     18210         1         0
     18213         1         0     18216         1         0     18219         1         0
     18222         1         0     18225         1         0     18228         1         0
     18231         1         0     18234         1         0     18237         1         0
     18240         1         0     18244         2         0     18251         2         0
     18262         1         0     18270         1         0     18279         1         0
     18282         1         0     18285         1         0     18288         1         0
     18291         1         0     18294         1         0     18297         1         0
     18299         1         0     18301         1         0     18304         1         0
     18307         1         0     18310         1         0     18313         1         0
     18316         1         0     18319         1         0     18322         1         0
     18326         1         0     18329         1         0     18332         1         0
     18335         1         0     18338         1         0     18341         1         0
     18344         1         0     18347         1         0     18350         1         0
     18353         1         0     18356         1         0     18359         1         0
     18362         1         0     18365         1         0     18368         1         0
     18371         1         0     18375         1         0     18379         1         0
     18383         1         0     18387         1         0     18391         1         0
     18395         2         0     18405         1         0     18413         1         0
     18422         1         0     18425         1         0     18428         1         0
     18430         1         0     18432         1         0     18435         1         0
     18437         1         0     18439         1         0     18442         1         0
     18444         1         0     18446         1         0     18449         1         0
     18451         1         0     18453         1         0     18456         1         0
     18459         1         0     18462         1         0     18465         1         0
     18469         1         0     18472         1         0     18475         1         0
     18478         1         0     18481         1         0     18484         1         0
     18487         1         0     18490         1         0     18493         1         0
     18496         1         0     18499         1         0     18502         1         0
     18505         1         0     18508         1         0     18511         1         0
     18514         1         0     18518         1         0     18522         1         0
     18526         1         0     18530         1         0     18534         1         0
     18538         2         0     18548         1         0     18556         1         0
     18565         1         0     18568         1         0     18571         1         0
     18573         1         0     18575         1         0     18578         1         0
     18580         1         0     18582         1         0     18585         1         0
     18587         1         0     18589         1         0     18592         1         0
     18594         1         0     18596         1         0     18599         1         0
     18602         1         0     18605         1         0     18608         1         0
     18612         1         0     18615         1         0     18618         1         0
     18621         1         0     18624         1         0     18627         1         0
     18630         1         0     18633         1         0     18636         1         0
     18639         1         0     18642         1         0     18645         1         0
     18648         1         0     18651         1         0     18654         1         0
     18657         1         0     18661         2         0     18668         2         0
     18679         1         0     18687         1         0     18696         1         0
     18699         1         0     18702         1         0     18705         1         0
     18708         1         0     18711         1         0     18714         1         0
     18716         1         0     18718         1         0     18721         1         0
     18724         1         0     18727         1         0     18730         1         0
     18733         1         0     18736         1         0     18739         1         0
     18743         1         0     18746         1         0     18749         1         0
     18752         1         0     18755         1         0     18758         1         0
     18761         1         0     18764         1         0     18767         1         0
     18770         1         0     18773         1         0     18776         1         0
     18779         1         0     18782         1         0     18785         1         0
     18788         1         0     18792         2         0     18808         2         0
     18819         1         0     18827         1         0     18836         1         0
     18839         1         0     18842         1         0     18844         1         0
     18846         1         0     18849         1         0     18851         1         0
     18853         1         0     18856         1         0     18858         1         0
     18860         1         0     18863         1         0     18865         1         0
     18867         1         0     18870         1         0     18873         2         0
     18876         1         0     18879         2         0     18883         1         0
     18886         1         0     18889         1         0     18892         1         0
     18895         1         0     18898         1         0     18901         1         0
     18904         1         0     18907         1         0     18910         1         0
     18913         1         0     18916         1         0     18919         1         0
     18922         1         0     18925         1         0     18928         1         0
     18932         1         0     18936         1         0     18939         1         0
     18942         1         0     18945         1         0     18947         1         0
     18949         1         0     18952         1         0     18955         1         0
     18957         0         0     18958         1         0     18962         1         0
     18965         1         0     18968         1         0     18970         0         0
     18971         1         0     18975         1         0     18978         1         0
     18981         1         0     18983         1         0     18987         1         0
     18990         1         0     18993         1         0     18996         1         0
     18998         1         0     19002         1         0     19006         2         0
     19013         2         0     19024         1         0     19032         1         0
     19041         1         0     19044         1         0     19047         1         0
     19049         1         0     19051         1         0     19054         1         0
     19056         1         0     19058         1         0     19061         1         0
     19063         1         0     19065         1         0     19068         1         0
     19070         1         0     19072         1         0     19075         1         0
     19078         1         0     19081         1         0     19084         1         0
     19088         1         0     19091         1         0     19094         1         0
     19097         1         0     19100         1         0     19103         1         0
     19106         1         0     19109         1         0     19112         1         0
     19115         1         0     19118         1         0     19121         1         0
     19124         1         0     19127         1         0     19130         1         0
     19133         1         0     19137         2         0     19153         2         0
     19164         1         0     19168         1         0     19172         1         0
     19174         1         0     19176         1         0     19179         1         0
     19182         1         0     19185         1         0     19188         1         0
     19191         1         0     19194         1         0     19197         1         0
     19200         1         0     19203         1         0     19206         1         0
     19209         1         0     19212         1         0     19216         1         0
     19221         1         0     19224         1         0     19227         1         0
     19230         1         0     19233         1         0     19236         1         0
     19239         1         0     19241         1         0     19243         1         0
     19246         1         0     19249         1         0     19252         1         0
     19255         1         0     19258         1         0     19261         1         0
     19264         1         0     19268         1         0     19272         1         0
     19275         1         0     19278         1         0     19281         1         0
     19283         1         0     19285         1         0     19288         1         0
     19291         1         0     19293         0         0     19294         1         0
     19298         1         0     19301         1         0     19304         1         0
     19306         0         0     19307         1         0     19311         1         0
     19314         1         0     19317         1         0     19319         1         0
     19323         1         0     19326         1         0     19329         1         0
     19332         1         0     19334         1         0     19338         1         0
     19342         2         0     19349         2         0     19360         1         0
     19368         1         0     19377         1         0     19380         1         0
     19383         1         0     19385         1         0     19387         1         0
     19390         1         0     19392         1         0     19394         1         0
     19397         1         0     19399         1         0     19401         1         0
     19404         1         0     19406         1         0     19408         1         0
     19411         1         0     19414         1         0     19417         1         0
     19420         1         0     19424         1         0     19427         1         0
     19430         1         0     19433         1         0     19436         1         0
     19439         1         0     19442         1         0     19445         1         0
     19448         1         0     19451         1         0     19454         1         0
     19457         1         0     19460         1         0     19463         1         0
     19466         1         0     19469         1         0     19473         2         0
     19480         2         0     19491         1         0     19499         1         0
     19508         1         0     19511         1         0     19514         1         0
     19517         1         0     19520         1         0     19523         1         0
     19526         1         0     19528         1         0     19530         1         0
     19533         1         0     19536         1         0     19539         1         0
     19542         1         0     19545         1         0     19548         1         0
     19551         1         0     19555         1         0     19558         1         0
     19561         1         0     19564         1         0     19567         1         0
     19570         1         0     19573         1         0     19576         1         0
     19579         1         0     19582         1         0     19585         1         0
     19588         1         0     19591         1         0     19594         1         0
     19597         1         0     19600         1         0     19604         2         0
     19620         2         0     19631         1         0     19639         1         0
     19648         1         0     19651         1         0     19654         1         0
     19657         1         0     19660         1         0     19663         1         0
     19666         1         0     19668         1         0     19670         1         0
     19673         1         0     19675         1         0     19677         1         0
     19680         1         0     19683         1         0     19686         1         0
     19689         1         0     19693         1         0     19696         1         0
     19699         1         0     19702         1         0     19705         1         0
     19708         1         0     19711         1         0     19714         1         0
     19717         1         0     19720         1         0     19723         1         0
     19726         1         0     19729         1         0     19732         1         0
     19735         1         0     19738         1         0     19742         2         0
     19758         2         0     19769         1         0     19777         1         0
     19786         1         0     19789         1         0     19792         1         0
     19794         1         0     19796         1         0     19799         1         0
     19801         1         0     19803         1         0     19806         1         0
     19808         1         0     19810         1         0     19813         1         0
     19815         1         0     19817         1         0     19820         1         0
     19823         2         0     19826         1         0     19829         2         0
     19833         1         0     19836         1         0     19839         1         0
     19842         1         0     19845         1         0     19848         1         0
     19851         1         0     19854         1         0     19857         1         0
     19860         1         0     19863         1         0     19866         1         0
     19869         1         0     19872         1         0     19875         1         0
     19878         1         0     19882         2         0     19898         2         0
     19909         1         0     19917         1         0     19926         1         0
     19929         1         0     19932         1         0     19935         1         0
     19938         1         0     19941         1         0     19944         1         0
     19946         1         0     19948         1         0     19951         1         0
     19953         1         0     19955         1         0     19958         1         0
     19961         1         0     19964         1         0     19967         1         0
     19971         1         0     19974         1         0     19977         1         0
     19980         1         0     19983         1         0     19986         1         0
     19989         1         0     19992         1         0     19995         1         0
     19998         1         0     20001         1         0     20004         1         0
     20007         1         0     20010         1         0     20013         1         0
     20016         1         0     20020         1         0     20024         1         0
     20027         1         0     20030         1         0     20033         1         0
     20035         1         0     20037         1         0     20040         1         0
     20043         1         0     20045         0         0     20046         1         0
     20050         1         0     20053         1         0     20056         1         0
     20058         0         0     20059         1         0     20063         1         0
     20066         1         0     20069         1         0     20071         1         0
     20075         1         0     20078         1         0     20081         1         0
     20084         1         0     20086         1         0     20090         1         0
     20094         1         0     20098         1         0     20101         1         0
     20104         1         0     20107         1         0     20109         1         0
     20111         1         0     20114         1         0     20117         1         0
     20119         0         0     20120         1         0     20124         1         0
     20127         1         0     20130         1         0     20132         0         0
     20133         1         0     20137         1         0     20140         1         0
     20143         1         0     20145         1         0     20149         1         0
     20152         1         0     20155         1         0     20158         1         0
     20160         1         0     20164         1         0     20168         2         0
     20175         2         0     20186         1         0     20194         1         0
     20203         1         0     20206         1         0     20209         1         0
     20211         1         0     20213         1         0     20216         1         0
     20218         1         0     20220         1         0     20223         1         0
     20225         1         0     20227         1         0     20230         1         0
     20232         1         0     20234         1         0     20237         1         0
     20240         1         0     20243         1         0     20246         1         0
     20250         1         0     20253         1         0     20256         1         0
     20259         1         0     20262         1         0     20265         1         0
     20268         1         0     20271         1         0     20274         1         0
     20277         1         0     20280         1         0     20283         1         0
     20286         1         0     20289         1         0     20292         1         0
     20295         1         0     20299         1         0     20303         1         0
     20306         1         0     20309         1         0     20312         1         0
     20314         1         0     20316         1         0     20319         1         0
     20322         1         0     20324         0         0     20325         1         0
     20329         1         0     20332         1         0     20335         1         0
     20337         0         0     20338         1         0     20342         1         0
     20345         1         0     20348         1         0     20350         1         0
     20354         1         0     20357         1         0     20360         1         0
     20363         1         0     20365         1         0     20369         1         0
     20373         2         0     20389         2         0     20400         1         0
     20404         1         0     20408         1         0     20410         1         0
     20412         1         0     20415         1         0     20418         1         0
     20421         1         0     20424         1         0     20427         1         0
     20430         1         0     20433         1         0     20436         1         0
     20439         1         0     20442         1         0     20445         1         0
     20448         1         0     20452         1         0     20457         1         0
     20460         1         0     20463         1         0     20466         1         0
     20469         1         0     20472         1         0     20475         1         0
     20477         1         0     20479         1         0     20482         1         0
     20485         1         0     20488         1         0     20491         1         0
     20494         1         0     20497         1         0     20500         1         0
     20504         2         0     20520         2         0     20531         1         0
     20535         1         0     20539         1         0     20541         1         0
     20543         1         0     20546         1         0     20549         1         0
     20552         1         0     20555         1         0     20558         1         0
     20561         1         0     20564         1         0     20567         1         0
     20570         1         0     20573         1         0     20576         1         0
     20579         1         0     20583         1         0     20588         1         0
     20591         1         0     20594         1         0     20597         1         0
     20600         1         0     20603         1         0     20606         1         0
     20608         1         0     20610         1         0     20613         1         0
     20616         1         0     20619         1         0     20622         1         0
     20625         1         0     20628         1         0     20631         1         0
     20635         1         0     20639         1         0     20642         1         0
     20645         1         0     20648         1         0     20650         1         0
     20652         1         0     20655         1         0     20658         1         0
     20660         0         0     20661         1         0     20665         1         0
     20668         1         0     20671         1         0     20673         0         0
     20674         1         0     20678         1         0     20681         1         0
     20684         1         0     20686         1         0     20690         1         0
     20693         1         0     20696         1         0     20699         1         0
     20701         1         0     20705         1         0     20709         1         0
     20713         1         0     20716         1         0     20719         1         0
     20722         1         0     20724         1         0     20726         1         0
     20729         1         0     20732         1         0     20734         0         0
     20735         1         0     20739         1         0     20742         1         0
     20745         1         0     20747         0         0     20748         1         0
     20752         1         0     20755         1         0     20758         1         0
     20760         1         0     20764         1         0     20767         1         0
     20770         1         0     20773         1         0     20775         1         0
     20779         1         0     20783         2         0     20790         2         0
     20801         1         0     20809         1         0     20818         1         0
     20821         1         0     20824         1         0     20826         1         0
     20828         1         0     20831         1         0     20833         1         0
     20835         1         0     20838         1         0     20840         1         0
     20842         1         0     20845         1         0     20847         1         0
     20849         1         0     20852         1         0     20855         1         0
     20858         1         0     20861         1         0     20865         1         0
     20868         1         0     20871         1         0     20874         1         0
     20877         1         0     20880         1         0     20883         1         0
     20886         1         0     20889         1         0     20892         1         0
     20895         1         0     20898         1         0     20901         1         0
     20904         1         0     20907         1         0     20910         1         0
     20914         2         0     20930         2         0     20941         1         0
     20949         1         0     20958         1         0     20961         1         0
     20964         1         0     20967         1         0     20970         1         0
     20973         1         0     20976         1         0     20978         1         0
     20980         1         0     20983         1         0     20985         1         0
     20987         1         0     20990         1         0     20993         1         0
     20996         1         0     20999         1         0     21003         1         0
     21006         1         0     21009         1         0     21012         1         0
     21015         1         0     21018         1         0     21021         1         0
     21024         1         0     21027         1         0     21030         1         0
     21033         1         0     21036         1         0     21039         1         0
     21042         1         0     21045         1         0     21048         1         0
     21052         2         0     21068         2         0     21079         1         0
     21083         1         0     21087         1         0     21089         1         0
     21091         1         0     21094         1         0     21097         1         0
     21100         1         0     21103         1         0     21106         1         0
     21109         1         0     21112         1         0     21115         1         0
     21118         1         0     21121         1         0     21124         1         0
     21127         1         0     21131         1         0     21136         1         0
     21139         1         0     21142         1         0     21145         1         0
     21148         1         0     21151         1         0     21154         1         0
     21156         1         0     21158         1         0     21161         1         0
     21164         1         0     21167         1         0     21170         1         0
     21173         1         0     21176         1         0     21179         1         0
     21183         1         0     21187         1         0     21190         1         0
     21193         1         0     21196         1         0     21198         1         0
     21200         1         0     21203         1         0     21206         1         0
     21208         0         0     21209         1         0     21213         1         0
     21216         1         0     21219         1         0     21221         0         0
     21222         1         0     21226         1         0     21229         1         0
     21232         1         0     21234         1         0     21238         1         0
     21241         1         0     21244         1         0     21247         1         0
     21249         1         0     21253         1         0     21257         2         0
     21263         2         0     21266         2         0     21277         1         0
     21285         1         0     21294         1         0     21297         1         0
     21300         1         0     21302         1         0     21304         1         0
     21307         1         0     21309         1         0     21311         1         0
     21314         1         0     21316         1         0     21318         1         0
     21321         1         0     21323         1         0     21325         1         0
     21328         1         0     21331         1         0     21334         1         0
     21337         1         0     21341         1         0     21344         1         0
     21347         1         0     21350         1         0     21353         1         0
     21356         1         0     21359         1         0     21362         1         0
     21365         1         0     21368         1         0     21371         1         0
     21374         1         0     21377         1         0     21380         1         0
     21383         1         0     21386         1         0     21390         2         0
     21396         2         0     21399         2         0     21410         1         0
     21418         1         0     21427         1         0     21430         1         0
     21433         1         0     21435         1         0     21437         1         0
     21440         1         0     21442         1         0     21444         1         0
     21447         1         0     21449         1         0     21451         1         0
     21454         1         0     21456         1         0     21458         1         0
     21461         1         0     21464         1         0     21467         1         0
     21470         1         0     21474         1         0     21477         1         0
     21480         1         0     21483         1         0     21486         1         0
     21489         1         0     21492         1         0     21495         1         0
     21498         1         0     21501         1         0     21504         1         0
     21507         1         0     21510         1         0     21513         1         0
     21516         1         0     21519         1         0     21523         2         0
     21530         2         0     21541         1         0     21549         1         0
     21558         1         0     21561         1         0     21564         1         0
     21566         1         0     21568         1         0     21571         1         0
     21573         1         0     21575         1         0     21578         1         0
     21580         1         0     21582         1         0     21585         1         0
     21587         1         0     21589         1         0     21592         1         0
     21595         1         0     21598         1         0     21601         1         0
     21605         1         0     21608         1         0     21611         1         0
     21614         1         0     21617         1         0     21620         1         0
     21623         1         0     21626         1         0     21629         1         0
     21632         1         0     21635         1         0     21638         1         0
     21641         1         0     21644         1         0     21647         1         0
     21650         1         0     21654         2         0     21670         2         0
     21681         1         0     21685         1         0     21689         1         0
     21691         1         0     21693         1         0     21696         1         0
     21699         1         0     21702         1         0     21705         1         0
     21708         1         0     21711         1         0     21714         1         0
     21717         1         0     21720         1         0     21723         1         0
     21726         1         0     21729         1         0     21733         1         0
     21738         1         0     21741         1         0     21744         1         0
     21747         1         0     21750         1         0     21753         1         0
     21756         1         0     21758         1         0     21760         1         0
     21763         1         0     21766         1         0     21769         1         0
     21772         1         0     21775         1         0     21778         1         0
     21781         1         0     21785         2         0     21801         2         0
     21812         1         0     21816         1         0     21820         1         0
     21822         1         0     21824         1         0     21827         1         0
     21830         1         0     21833         1         0     21836         1         0
     21839         1         0     21842         1         0     21845         1         0
     21848         1         0     21851         1         0     21854         1         0
     21857         1         0     21860         1         0     21864         1         0
     21869         1         0     21872         1         0     21875         1         0
     21878         1         0     21881         1         0     21884         1         0
     21887         1         0     21889         1         0     21891         1         0
     21894         1         0     21897         1         0     21900         1         0
     21903         1         0     21906         1         0     21909         1         0
     21912         1         0     21916         2         0     21923         2         0
     21934         1         0     21942         1         0     21951         1         0
     21954         1         0     21957         1         0     21959         1         0
     21961         1         0     21964         1         0     21966         1         0
     21968         1         0     21971         1         0     21973         1         0
     21975         1         0     21978         1         0     21980         1         0
     21982         1         0     21985         1         0     21988         1         0
     21991         1         0     21994         1         0     21998         1         0
     22001         1         0     22004         1         0     22007         1         0
     22010         1         0     22013         1         0     22016         1         0
     22019         1         0     22022         1         0     22025         1         0
     22028         1         0     22031         1         0     22034         1         0
     22037         1         0     22040         1         0     22043         1         0
     22047         2         0     22054         2         0     22065         1         0
     22073         1         0     22082         1         0     22085         1         0
     22088         1         0     22090         1         0     22092         1         0
     22095         1         0     22097         1         0     22099         1         0
     22102         1         0     22104         1         0     22106         1         0
     22109         1         0     22111         1         0     22113         1         0
     22116         1         0     22119         1         0     22122         1         0
     22125         1         0     22129         1         0     22132         1         0
     22135         1         0     22138         1         0     22141         1         0
     22144         1         0     22147         1         0     22150         1         0
     22153         1         0     22156         1         0     22159         1         0
     22162         1         0     22165         1         0     22168         1         0
     22171         1         0     22174         1         0     22178         1         0
     22182         1         0     22185         1         0     22188         1         0
     22191         1         0     22193         1         0     22195         1         0
     22198         1         0     22201         1         0     22203         0         0
     22204         1         0     22208         1         0     22211         1         0
     22214         1         0     22216         0         0     22217         1         0
     22221         1         0     22224         1         0     22227         1         0
     22229         1         0     22233         1         0     22236         1         0
     22239         1         0     22242         1         0     22244         1         0
     22248         1         0

         0         0 !NUMLP NUMLPH

         0 !NCRTERM: cross-terms

