* GENERATED BY CHARMM-GUI (HTTP://WWW.CHARMM-GUI.ORG) V3.7 ON FEB, 18. 2025. JOB
* GET A DIFFERENT CONFORMATION FOR LIPIDS PENETRATING PROTEIN / CHOL
*  DATE:     2/18/25     11:41:21      CREATED BY USER: charmm-gui
*
       294  EXT
         1         1  TIP3      OH2             2.1343476205       -0.5287348027       21.7192250000  TIP3      1             -21.1700000000
         2         1  TIP3      H1              1.6758735167       -0.2300345512       20.9338550000  TIP3      1               0.0000000000
         3         1  TIP3      H2              1.6632050758       -1.3178933188       21.9866050000  TIP3      1               0.0000000000
         4         2  TIP3      OH2             0.6063835035        0.7221984425       19.4588550000  TIP3      2               0.0000000000
         5         2  TIP3      H1             -0.1150554267        0.1299756098       19.6710650000  TIP3      2               0.0000000000
         6         2  TIP3      H2              1.2503912461        0.1677169716       19.0183650000  TIP3      2               0.0000000000
         7         3  TIP3      OH2            13.1747666627       -5.3293057961       19.4035950000  TIP3      3               0.0000000000
         8         3  TIP3      H1             13.4138475371       -4.9963737029       18.5385950000  TIP3      3               0.0000000000
         9         3  TIP3      H2             12.3432340577       -4.8999264445       19.6046050000  TIP3      3               0.0000000000
        10         4  TIP3      OH2            23.0467060005        7.1953040017       16.4888150000  TIP3      4               0.0000000000
        11         4  TIP3      H1             22.8248125539        6.9418448798       17.3847850000  TIP3      4               0.0000000000
        12         4  TIP3      H2             22.2508486060        7.6066208534       16.1516850000  TIP3      4               0.0000000000
        13         5  TIP3      OH2            20.0521362829        2.2600234415       20.8119150000  TIP3      5               0.0000000000
        14         5  TIP3      H1             19.3245134012        2.5246602595       20.2490950000  TIP3      5               0.0000000000
        15         5  TIP3      H2             20.1983100846        1.3385939891       20.5978350000  TIP3      5               0.0000000000
        16         6  TIP3      OH2            16.2461091585        4.3850138726       20.3828750000  TIP3      6               0.0000000000
        17         6  TIP3      H1             16.1843117423        5.2577792923       19.9946750000  TIP3      6               0.0000000000
        18         6  TIP3      H2             16.6827637661        3.8558372691       19.7153950000  TIP3      6               0.0000000000
        19         7  TIP3      OH2            15.4890763677      -11.7112514997       20.8173800000  TIP3      7               0.0000000000
        20         7  TIP3      H1             15.6142762339      -10.7781307817       20.6446300000  TIP3      7               0.0000000000
        21         7  TIP3      H2             15.0111081920      -12.0346662623       20.0537300000  TIP3      7               0.0000000000
        22         8  TIP3      OH2            13.0021811857      -10.1793104080       19.5764600000  TIP3      8               0.0000000000
        23         8  TIP3      H1             12.6448190935      -10.4963543443       20.4059200000  TIP3      8               0.0000000000
        24         8  TIP3      H2             13.3587389619      -10.9609461050       19.1543700000  TIP3      8               0.0000000000
        25         9  TIP3      OH2            11.7759409473      -14.7484843167       19.7484300000  TIP3      9               0.0000000000
        26         9  TIP3      H1             10.9833220204      -14.7360123303       20.2849200000  TIP3      9               0.0000000000
        27         9  TIP3      H2             11.7275616460      -15.5749370615       19.2679500000  TIP3      9               0.0000000000
        28        10  TIP3      OH2            -5.9484361917       16.8283087152       19.1753750000  TIP3      10              0.0000000000
        29        10  TIP3      H1             -5.1086985903       16.7899815016       19.6331950000  TIP3      10              0.0000000000
        30        10  TIP3      H2             -6.5932158567       16.5721968553       19.8348450000  TIP3      10              0.0000000000
        31        11  TIP3      OH2            13.1334701388      -20.1006926050       20.1444750000  TIP3      11              0.0000000000
        32        11  TIP3      H1             13.2596288748      -19.6479557535       20.9783450000  TIP3      11              0.0000000000
        33        11  TIP3      H2             14.0011168890      -20.1053391241       19.7402450000  TIP3      11              0.0000000000
        34        12  TIP3      OH2             9.7087259808      -22.3797029114       20.7069550000  TIP3      12              0.0000000000
        35        12  TIP3      H1              9.0289380729      -22.6896524759       20.1085850000  TIP3      12              0.0000000000
        36        12  TIP3      H2             10.1068991061      -21.6366235275       20.2536050000  TIP3      12              0.0000000000
        37        13  TIP3      OH2             8.1078279129      -19.6663414453       19.2136150000  TIP3      13              0.0000000000
        38        13  TIP3      H1              7.5925172315      -20.4449083844       19.0025950000  TIP3      13              0.0000000000
        39        13  TIP3      H2              8.9213693178      -19.7763339222       18.7213950000  TIP3      13              0.0000000000
        40        14  TIP3      OH2            27.8365935821        2.6454345385       20.0103200000  TIP3      14              0.0000000000
        41        14  TIP3      H1             28.2797132820        3.3828679659       20.4299200000  TIP3      14              0.0000000000
        42        14  TIP3      H2             27.9555145790        1.9162035341       20.6188600000  TIP3      14              0.0000000000
        43        15  TIP3      OH2            -6.1908211863       29.9744419031       18.8937250000  TIP3      15              0.0000000000
        44        15  TIP3      H1             -5.6826562055       29.2014207378       18.6478950000  TIP3      15              0.0000000000
        45        15  TIP3      H2             -7.1034449618       29.7026331002       18.7963450000  TIP3      15              0.0000000000
        46        16  TIP3      OH2            -1.4227375825       28.8340547020       19.1208050000  TIP3      16              0.0000000000
        47        16  TIP3      H1             -2.2385874943       28.3342188134       19.1487650000  TIP3      16              0.0000000000
        48        16  TIP3      H2             -0.8980413201       28.4773081047       19.8375050000  TIP3      16              0.0000000000
        49        17  TIP3      OH2            -3.2850035284       27.7514995721       21.8334650000  TIP3      17              0.0000000000
        50        17  TIP3      H1             -3.4604121617       27.1428597898       21.1158050000  TIP3      17              0.0000000000
        51        17  TIP3      H2             -3.8765403359       27.4744106433       22.5331250000  TIP3      17              0.0000000000
        52        18  TIP3      OH2           -25.1533202315       13.9034211921       19.2598400000  TIP3      18              0.0000000000
        53        18  TIP3      H1            -24.2159990013       14.0920928220       19.2143800000  TIP3      18              0.0000000000
        54        18  TIP3      H2            -25.5197979348       14.6285267087       19.7659600000  TIP3      18              0.0000000000
        55        19  TIP3      OH2           -31.0364593081       -6.0352395183       19.4007300000  TIP3      19              0.0000000000
        56        19  TIP3      H1            -30.7874571404       -5.5691074496       20.1988300000  TIP3      19              0.0000000000
        57        19  TIP3      H2            -30.2075177014       -6.2040328835       18.9528600000  TIP3      19              0.0000000000
        58        20  TIP3      OH2           -30.8238546752       -9.5940569749       18.9214400000  TIP3      20              0.0000000000
        59        20  TIP3      H1            -31.1448925810       -9.3762022887       19.7964900000  TIP3      20              0.0000000000
        60        20  TIP3      H2            -30.8188585719      -10.5509822501       18.8989900000  TIP3      20              0.0000000000
        61        21  TIP3      OH2            30.0273059655       12.1121353577       20.9759500000  TIP3      21              0.0000000000
        62        21  TIP3      H1             30.5738406566       12.4557627623       20.2692300000  TIP3      21              0.0000000000
        63        21  TIP3      H2             29.6077145815       12.8856454635       21.3526100000  TIP3      21              0.0000000000
        64        22  TIP3      OH2            28.0725582955       14.2055547838       19.7564900000  TIP3      22              0.0000000000
        65        22  TIP3      H1             28.5559648469       14.8507966492       20.2724400000  TIP3      22              0.0000000000
        66        22  TIP3      H2             27.4593344987       14.7248632250       19.2363800000  TIP3      22              0.0000000000
        67        23  TIP3      OH2            26.4744020226        8.9138808579       18.1538700000  TIP3      23              0.0000000000
        68        23  TIP3      H1             25.8219329878        9.4321461317       18.6249500000  TIP3      23              0.0000000000
        69        23  TIP3      H2             27.2570048651        9.4649357879       18.1439300000  TIP3      23              0.0000000000
        70        24  TIP3      OH2             9.0952284119      -30.0496643694       21.4632100000  TIP3      24              0.0000000000
        71        24  TIP3      H1              9.1179831770      -30.2950005314       20.5382700000  TIP3      24              0.0000000000
        72        24  TIP3      H2              8.8811381539      -30.8621259854       21.9218000000  TIP3      24              0.0000000000
        73        25  TIP3      OH2             7.8606205667      -26.2648385022       19.9908900000  TIP3      25              0.0000000000
        74        25  TIP3      H1              8.3407908564      -25.5055244503       19.6605600000  TIP3      25              0.0000000000
        75        25  TIP3      H2              8.3368930495      -26.5256170187       20.7791700000  TIP3      25              0.0000000000
        76        26  TIP3      OH2             3.5612935352      -29.5177239814       20.0724800000  TIP3      26              0.0000000000
        77        26  TIP3      H1              2.8429206803      -29.9872106733       19.6485200000  TIP3      26              0.0000000000
        78        26  TIP3      H2              3.7195454445      -28.7609574143       19.5081300000  TIP3      26              0.0000000000
        79        27  TIP3      OH2             0.0420968522      -31.6471540562       20.7833300000  TIP3      27              0.0000000000
        80        27  TIP3      H1             -0.8503185155      -31.8932603742       21.0267800000  TIP3      27              0.0000000000
        81        27  TIP3      H2              0.5230170647      -32.4745878148       20.7662000000  TIP3      27              0.0000000000
        82        28  TIP3      OH2            17.0372976476      -24.6880900556       20.3758550000  TIP3      28            -18.0000000000
        83        28  TIP3      H1             16.8441525247      -25.5206599030       19.9448750000  TIP3      28              0.0000000000
        84        28  TIP3      H2             17.7702740591      -24.3249069980       19.8787950000  TIP3      28              0.0000000000
        85        29  TIP3      OH2            18.8674928377      -28.1900991533       19.8066250000  TIP3      29              0.0000000000
        86        29  TIP3      H1             18.5268098371      -29.0443124094       20.0721050000  TIP3      29              0.0000000000
        87        29  TIP3      H2             18.1381803006      -27.7728169431       19.3481350000  TIP3      29              0.0000000000
        88        30  TIP3      OH2           -20.9895518539       25.8179855737       21.3655400000  TIP3      30              0.0000000000
        89        30  TIP3      H1            -20.2592343540       25.8659239148       20.7486400000  TIP3      30              0.0000000000
        90        30  TIP3      H2            -20.6346832527       25.3505145406       22.1217000000  TIP3      30              0.0000000000
        91        31  TIP3      OH2           -20.8892549002       22.9570541816       20.7246700000  TIP3      31            -31.1800000000
        92        31  TIP3      H1            -21.0021388711       23.5320183833       19.9677600000  TIP3      31            -31.1200000000
        93        31  TIP3      H2            -21.0079517208       23.5307529669       21.4816500000  TIP3      31            -31.9100000000
        94        32  TIP3      OH2           -30.0256346627        6.8835768009       21.0341850000  TIP3      32            -30.8000000000
        95        32  TIP3      H1            -30.5915801112        6.6901466435       20.2868350000  TIP3      32            -31.1800000000
        96        32  TIP3      H2            -29.5354029581        7.6617419521       20.7689150000  TIP3      32            -29.8700000000
        97        33  TIP3      OH2           -33.7805620759        8.3171591045       18.6392950000  TIP3      33              0.0000000000
        98        33  TIP3      H1            -32.8830770706        7.9844488820       18.6313350000  TIP3      33              0.0000000000
        99        33  TIP3      H2            -34.3277214988        7.5317962386       18.6330050000  TIP3      33              0.0000000000
       100        34  TIP3      OH2           -32.5966378115        5.5384750970       21.6903250000  TIP3      34              0.0000000000
       101        34  TIP3      H1            -32.3901028873        4.8479140544       21.0604750000  TIP3      34              0.0000000000
       102        34  TIP3      H2            -31.7683530162        6.0002963898       21.8203050000  TIP3      34              0.0000000000
       103        35  TIP3      OH2            10.1120856383       28.4158741510       20.3602300000  TIP3      35              0.0000000000
       104        35  TIP3      H1             10.1865713843       28.5259206396       21.3081700000  TIP3      35              0.0000000000
       105        35  TIP3      H2             10.6473115238       29.1199449529       19.9941100000  TIP3      35              0.0000000000
       106        36  TIP3      OH2            14.1944824823       31.3351031577       19.9187700000  TIP3      36              0.0000000000
       107        36  TIP3      H1             15.0618844397       31.3140364477       19.5145300000  TIP3      36              0.0000000000
       108        36  TIP3      H2             14.2389058825       32.0579539649       20.5446600000  TIP3      36              0.0000000000
       109        37  TIP3      OH2            11.2893944849       31.4391754979       21.4526100000  TIP3      37              0.0000000000
       110        37  TIP3      H1             11.7354253436       32.2648461789       21.6412300000  TIP3      37              0.0000000000
       111        37  TIP3      H2             11.9896743972       30.7868754237       21.4342200000  TIP3      37              0.0000000000
       112        38  TIP3      OH2            12.8404100405       29.2218039884       21.6396000000  TIP3      38              0.0000000000
       113        38  TIP3      H1             13.3219790323       29.5202256940       20.8680700000  TIP3      38              0.0000000000
       114        38  TIP3      H2             13.5158178506       29.0730549680       22.3013700000  TIP3      38              0.0000000000
       115        39  TIP3      OH2           -26.6082464174      -22.7019907980       21.5059550000  TIP3      39              0.0000000000
       116        39  TIP3      H1            -26.2736414532      -23.5221105617       21.1430850000  TIP3      39              0.0000000000
       117        39  TIP3      H2            -27.5235487315      -22.6721290551       21.2274850000  TIP3      39              0.0000000000
       118        40  TIP3      OH2           -26.4665410361      -25.0525941379       19.8041450000  TIP3      40              0.0000000000
       119        40  TIP3      H1            -26.3495013580      -24.2682085213       19.2681650000  TIP3      40              0.0000000000
       120        40  TIP3      H2            -25.6568109184      -25.5486152624       19.6836450000  TIP3      40              0.0000000000
       121        41  TIP3      OH2           -34.9486365531       -0.0606361495       20.5783050000  TIP3      41              0.0000000000
       122        41  TIP3      H1            -35.6486408574       -0.6955660547       20.7302950000  TIP3      41              0.0000000000
       123        41  TIP3      H2            -35.3816345173        0.6747312046       20.1447550000  TIP3      41              0.0000000000
       124        42  TIP3      OH2           -33.3500568129       -3.8151766603       19.7676250000  TIP3      42              0.0000000000
       125        42  TIP3      H1            -34.0402125276       -4.4451155652       19.5600350000  TIP3      42              0.0000000000
       126        42  TIP3      H2            -33.5073305699       -3.0821141253       19.1725450000  TIP3      42              0.0000000000
       127        43  TIP3      OH2            33.7368639587        6.8603180139       20.8206650000  TIP3      43              0.0000000000
       128        43  TIP3      H1             34.4368459065        6.7505616917       21.4642650000  TIP3      43              0.0000000000
       129        43  TIP3      H2             32.9554720390        7.0385787140       21.3439950000  TIP3      43              0.0000000000
       130        44  TIP3      OH2            -4.1280203766       35.4335171843       19.5144600000  TIP3      44              0.0000000000
       131        44  TIP3      H1             -3.2382240518       35.4233554742       19.1617700000  TIP3      44              0.0000000000
       132        44  TIP3      H2             -4.1886173922       36.2625976231       19.9890100000  TIP3      44              0.0000000000
       133        45  TIP3      OH2             7.9616859287       37.4409882131       20.7422550000  TIP3      45              0.0000000000
       134        45  TIP3      H1              7.4416354835       38.2214883628       20.9335850000  TIP3      45              0.0000000000
       135        45  TIP3      H2              7.5648467372       37.0761500942       19.9512750000  TIP3      45              0.0000000000
       136        46  TIP3      OH2             3.8153295863       35.3185862536       19.4767250000  TIP3      46              0.0000000000
       137        46  TIP3      H1              3.7727179246       34.8003286586       20.2803550000  TIP3      46              0.0000000000
       138        46  TIP3      H2              3.0320838344       35.0672365539       18.9872550000  TIP3      46              0.0000000000
       139        47  TIP3      OH2             4.8030842965       37.7137127215       21.2116250000  TIP3      47              0.0000000000
       140        47  TIP3      H1              4.6907679103       37.4639555052       22.1288150000  TIP3      47              0.0000000000
       141        47  TIP3      H2              4.2347139197       37.1140717895       20.7282850000  TIP3      47              0.0000000000
       142        48  TIP3      OH2            35.9332565407       10.9995280076       20.6752950000  TIP3      48              0.0000000000
       143        48  TIP3      H1             35.8492880465       11.4997327077       21.4870650000  TIP3      48              0.0000000000
       144        48  TIP3      H2             35.9707145729       10.0861168354       20.9590250000  TIP3      48              0.0000000000
       145        49  TIP3      OH2           -31.5925804210      -24.2336529392       20.1598250000  TIP3      49              0.0000000000
       146        49  TIP3      H1            -32.3886883272      -24.4007750650       19.6553450000  TIP3      49              0.0000000000
       147        49  TIP3      H2            -31.4281496000      -23.2976226671       20.0455950000  TIP3      49              0.0000000000
       148        50  TIP3      OH2           -31.5739078154      -21.4508963188       20.6925350000  TIP3      50              0.0000000000
       149        50  TIP3      H1            -31.0143599743      -20.6774891639       20.7632750000  TIP3      50              0.0000000000
       150        50  TIP3      H2            -32.2691307076      -21.1896823033       20.0886650000  TIP3      50              0.0000000000
       151        51  TIP3      OH2           -33.5941956338      -23.4473534981       21.8680450000  TIP3      51              0.0000000000
       152        51  TIP3      H1            -32.6519901012      -23.5292409235       21.7204850000  TIP3      51              0.0000000000
       153        51  TIP3      H2            -33.9926111816      -23.7689123052       21.0592750000  TIP3      51              0.0000000000
       154        52  TIP3      OH2           -36.0075091272      -23.1157687802       19.0430050000  TIP3      52              0.0000000000
       155        52  TIP3      H1            -36.7619247723      -22.6764233666       18.6504950000  TIP3      52              0.0000000000
       156        52  TIP3      H2            -36.1710223485      -23.0775034011       19.9853650000  TIP3      52              0.0000000000
       157        53  TIP3      OH2            26.8548343689       35.2609593220       20.3342150000  TIP3      53              0.0000000000
       158        53  TIP3      H1             26.1587762189       35.9157472188       20.2794550000  TIP3      53              0.0000000000
       159        53  TIP3      H2             26.8441627584       34.9751854771       21.2476950000  TIP3      53              0.0000000000
       160        54  TIP3      OH2           -11.8105894673       12.6647218800      -20.3752250000  TIP3      54              0.0000000000
       161        54  TIP3      H1            -11.0209595914       12.4498117832      -19.8787150000  TIP3      54              0.0000000000
       162        54  TIP3      H2            -11.4873738499       13.1046790520      -21.1614850000  TIP3      54              0.0000000000
       163        55  TIP3      OH2            -9.1404935239       11.0301312438      -21.1101250000  TIP3      55              0.0000000000
       164        55  TIP3      H1             -9.6261722068       10.3145912813      -20.6998150000  TIP3      55              0.0000000000
       165        55  TIP3      H2             -8.5170506399       11.3118838240      -20.4406750000  TIP3      55              0.0000000000
       166        56  TIP3      OH2           -10.1489006142       15.6576961923      -19.8746750000  TIP3      56              0.0000000000
       167        56  TIP3      H1            -11.0186625246       15.3201163229      -20.0886550000  TIP3      56              0.0000000000
       168        56  TIP3      H2             -9.7329967661       14.9523690132      -19.3789150000  TIP3      56              0.0000000000
       169        57  TIP3      OH2           -17.6243561259       -1.9240705715      -18.9551450000  TIP3      57              0.0000000000
       170        57  TIP3      H1            -17.5220660255       -1.8529671296      -19.9042050000  TIP3      57              0.0000000000
       171        57  TIP3      H2            -17.1926903745       -1.1433971099      -18.6080950000  TIP3      57              0.0000000000
       172        58  TIP3      OH2           -16.3769877573       -0.4852693528      -21.3580850000  TIP3      58              0.0000000000
       173        58  TIP3      H1            -16.5297045999        0.4227007877      -21.6198150000  TIP3      58              0.0000000000
       174        58  TIP3      H2            -15.5540054270       -0.4591424771      -20.8699750000  TIP3      58              0.0000000000
       175        59  TIP3      OH2           -16.3121473389        3.4206858927      -20.0016950000  TIP3      59              0.0000000000
       176        59  TIP3      H1            -16.6245736966        2.9100376906      -19.2547950000  TIP3      59              0.0000000000
       177        59  TIP3      H2            -16.6535164249        2.9591291000      -20.7676250000  TIP3      59              0.0000000000
       178        60  TIP3      OH2            18.7237204212       -3.0944259164      -19.1396500000  TIP3      60            -22.7400000000
       179        60  TIP3      H1             19.0301673886       -2.6346319657      -19.9212600000  TIP3      60            -22.7000000000
       180        60  TIP3      H2             17.8730039553       -2.7000666285      -18.9473100000  TIP3      60            -23.6300000000
       181        61  TIP3      OH2            17.5646759390        0.5217273381      -20.2049300000  TIP3      61              0.0000000000
       182        61  TIP3      H1             18.0821273443        1.2761201748      -19.9232100000  TIP3      61              0.0000000000
       183        61  TIP3      H2             17.0767381075        0.8361409719      -20.9660500000  TIP3      61              0.0000000000
       184        62  TIP3      OH2            14.0406043361       -1.6830900747      -19.6959900000  TIP3      62              0.0000000000
       185        62  TIP3      H1             14.9203227995       -1.6887779907      -19.3187700000  TIP3      62              0.0000000000
       186        62  TIP3      H2             14.0895925453       -1.0470350222      -20.4096200000  TIP3      62              0.0000000000
       187        63  TIP3      OH2             8.4653905273      -15.3917323164      -21.3455200000  TIP3      63              0.0000000000
       188        63  TIP3      H1              8.7879734614      -15.1695948358      -20.4721200000  TIP3      63              0.0000000000
       189        63  TIP3      H2              8.3981563212      -14.5507096870      -21.7976100000  TIP3      63              0.0000000000
       190        64  TIP3      OH2           -19.0823115980        8.6752228491      -20.1315900000  TIP3      64              0.0000000000
       191        64  TIP3      H1            -18.3529422910        8.7900463667      -19.5224300000  TIP3      64              0.0000000000
       192        64  TIP3      H2            -18.7051299885        8.1972985345      -20.8702100000  TIP3      64              0.0000000000
       193        65  TIP3      OH2           -18.6933840965      -17.1832554506      -19.4403800000  TIP3      65              0.0000000000
       194        65  TIP3      H1            -18.1964130970      -16.4008000128      -19.6791700000  TIP3      65              0.0000000000
       195        65  TIP3      H2            -18.0786550756      -17.9059495417      -19.5670900000  TIP3      65              0.0000000000
       196        66  TIP3      OH2           -12.1795493031       20.6301028684      -19.6699900000  TIP3      66              0.0000000000
       197        66  TIP3      H1            -11.9320686237       19.9740964063      -20.3216300000  TIP3      66              0.0000000000
       198        66  TIP3      H2            -12.7006616032       21.2680224671      -20.1575800000  TIP3      66              0.0000000000
       199        67  TIP3      OH2            -8.4212500515       19.3930076155      -20.5610100000  TIP3      67              0.0000000000
       200        67  TIP3      H1             -8.6956319442       19.9881294849      -19.8633100000  TIP3      67              0.0000000000
       201        67  TIP3      H2             -9.0815785614       19.5044005931      -21.2449600000  TIP3      67              0.0000000000
       202        68  TIP3      OH2           -10.5913775879       20.2923209945      -21.8759200000  TIP3      68              0.0000000000
       203        68  TIP3      H1            -10.5839456671       19.5855322767      -22.5213900000  TIP3      68              0.0000000000
       204        68  TIP3      H2            -10.3311457842       21.0703784844      -22.3690100000  TIP3      68              0.0000000000
       205        69  TIP3      OH2            -9.0551368296       23.2165964034      -20.8064900000  TIP3      69              0.0000000000
       206        69  TIP3      H1             -9.9741178208       23.2135943373      -21.0742500000  TIP3      69              0.0000000000
       207        69  TIP3      H2             -9.0332389950       22.6748215952      -20.0176700000  TIP3      69              0.0000000000
       208        70  TIP3      OH2           -16.8732024549       14.6838512019      -20.2010000000  TIP3      70              0.0000000000
       209        70  TIP3      H1            -17.3643478192       14.6655506139      -21.0223800000  TIP3      70              0.0000000000
       210        70  TIP3      H2            -16.0453309665       14.2496098105      -20.4066800000  TIP3      70              0.0000000000
       211        71  TIP3      OH2           -15.3231846903       18.3363646385      -20.5934900000  TIP3      71              0.0000000000
       212        71  TIP3      H1            -15.7054213935       18.0594255392      -19.7607600000  TIP3      71              0.0000000000
       213        71  TIP3      H2            -15.7235687782       17.7603078318      -21.2447100000  TIP3      71              0.0000000000
       214        72  TIP3      OH2            23.9740417463       -2.3858066257      -19.3618450000  TIP3      72              0.0000000000
       215        72  TIP3      H1             23.5189492726       -3.1691975879      -19.0529550000  TIP3      72              0.0000000000
       216        72  TIP3      H2             24.9018671006       -2.6189421554      -19.3297850000  TIP3      72              0.0000000000
       217        73  TIP3      OH2            25.6892380705       -6.6352645890      -19.5783550000  TIP3      73              0.0000000000
       218        73  TIP3      H1             25.5647240560       -6.1905310852      -20.4167750000  TIP3      73              0.0000000000
       219        73  TIP3      H2             24.9670646271       -6.3245526038      -19.0323150000  TIP3      73              0.0000000000
       220        74  TIP3      OH2            24.7858244593       -4.6732067604      -21.4976850000  TIP3      74              0.0000000000
       221        74  TIP3      H1             25.5396447602       -4.7386493041      -22.0839550000  TIP3      74              0.0000000000
       222        74  TIP3      H2             25.0725706004       -4.0799394012      -20.8033950000  TIP3      74              0.0000000000
       223        75  TIP3      OH2            20.0954777327      -11.7708465796      -20.5249900000  TIP3      75              0.0000000000
       224        75  TIP3      H1             20.9744947315      -12.1058277985      -20.7020300000  TIP3      75              0.0000000000
       225        75  TIP3      H2             19.5701110105      -12.0719113687      -21.2663300000  TIP3      75              0.0000000000
       226        76  TIP3      OH2            23.3570526273      -10.0310459205      -19.8672200000  TIP3      76              0.0000000000
       227        76  TIP3      H1             23.0212333283      -10.7377694644      -20.4185800000  TIP3      76              0.0000000000
       228        76  TIP3      H2             22.7043878305       -9.3351947795      -19.9450100000  TIP3      76              0.0000000000
       229        77  TIP3      OH2            22.9012239139      -12.3534848035      -21.2430900000  TIP3      77              0.0000000000
       230        77  TIP3      H1             22.8607134757      -12.6469052506      -20.3328800000  TIP3      77              0.0000000000
       231        77  TIP3      H2             23.1010290960      -13.1456208436      -21.7419200000  TIP3      77              0.0000000000
       232        78  TIP3      OH2            25.5070267985      -13.7969476096      -19.8645000000  TIP3      78              0.0000000000
       233        78  TIP3      H1             24.9412902881      -14.0779549138      -20.5836800000  TIP3      78              0.0000000000
       234        78  TIP3      H2             25.7430424441      -14.6078060251      -19.4139100000  TIP3      78              0.0000000000
       235        79  TIP3      OH2            14.9095969487       20.5084991261      -19.1193050000  TIP3      79              0.0000000000
       236        79  TIP3      H1             15.7701224749       20.7810510964      -18.8008150000  TIP3      79              0.0000000000
       237        79  TIP3      H2             14.5274416508       21.3043912338      -19.4891150000  TIP3      79              0.0000000000
       238        80  TIP3      OH2            29.6442342141       -1.1761582908      -21.4085600000  TIP3      80              0.0000000000
       239        80  TIP3      H1             29.0770278641       -0.4051907349      -21.4188800000  TIP3      80              0.0000000000
       240        80  TIP3      H2             29.6757498590       -1.4386032342      -20.4885800000  TIP3      80              0.0000000000
       241        81  TIP3      OH2            33.0058413824       -1.3988054907      -18.2257000000  TIP3      81              0.0000000000
       242        81  TIP3      H1             33.7193074503       -0.9484120364      -17.7736500000  TIP3      81              0.0000000000
       243        81  TIP3      H2             33.4415585988       -1.9304610941      -18.8918300000  TIP3      81              0.0000000000
       244        82  TIP3      OH2           -30.1836707956       -1.7652997548      -20.0842650000  TIP3      82              0.0000000000
       245        82  TIP3      H1            -29.3702735758       -1.2853382520      -19.9285250000  TIP3      82              0.0000000000
       246        82  TIP3      H2            -30.8580345565       -1.2413323436      -19.6519150000  TIP3      82              0.0000000000
       247        83  TIP3      OH2           -28.8424762628        1.1508629553      -20.9650750000  TIP3      83              0.0000000000
       248        83  TIP3      H1            -28.1307073867        0.5365068371      -20.7856450000  TIP3      83              0.0000000000
       249        83  TIP3      H2            -28.6216339181        1.9297775586      -20.4544350000  TIP3      83              0.0000000000
       250        84  TIP3      OH2            -2.3650572075       31.4723710735      -20.0540100000  TIP3      84              0.0000000000
       251        84  TIP3      H1             -2.2007993563       30.6313715168      -20.4806000000  TIP3      84              0.0000000000
       252        84  TIP3      H2             -1.8925230625       32.1095323953      -20.5897000000  TIP3      84              0.0000000000
       253        85  TIP3      OH2           -21.8344338577       31.5660653729      -19.0109350000  TIP3      85              0.0000000000
       254        85  TIP3      H1            -22.6433989753       32.0720470031      -19.0869850000  TIP3      85              0.0000000000
       255        85  TIP3      H2            -22.1269341610       30.6647020867      -18.8759550000  TIP3      85              0.0000000000
       256        86  TIP3      OH2           -22.0414171882       26.7773697074      -20.0159650000  TIP3      86              0.0000000000
       257        86  TIP3      H1            -22.3165693600       26.3914909922      -20.8476050000  TIP3      86              0.0000000000
       258        86  TIP3      H2            -21.1000806143       26.6091919896      -19.9731750000  TIP3      86              0.0000000000
       259        87  TIP3      OH2           -17.8255148714       30.8093714115      -19.5919050000  TIP3      87              0.0000000000
       260        87  TIP3      H1            -17.6784453488       31.7115023388      -19.3076950000  TIP3      87              0.0000000000
       261        87  TIP3      H2            -17.0736715611       30.3248007935      -19.2510850000  TIP3      87              0.0000000000
       262        88  TIP3      OH2            18.9744663868      -35.0570833311      -19.7549300000  TIP3      88              0.0000000000
       263        88  TIP3      H1             19.2426242898      -35.7037292571      -19.1021100000  TIP3      88              0.0000000000
       264        88  TIP3      H2             18.1379679722      -34.7223976067      -19.4316800000  TIP3      88              0.0000000000
       265        89  TIP3      OH2            17.8774896978      -31.1023095311      -20.3908600000  TIP3      89              0.0000000000
       266        89  TIP3      H1             16.9411362160      -31.2713702564      -20.2864600000  TIP3      89              0.0000000000
       267        89  TIP3      H2             17.9209665470      -30.3442965971      -20.9737500000  TIP3      89              0.0000000000
       268        90  TIP3      OH2            14.1094111547      -33.7904995218      -19.0368100000  TIP3      90              0.0000000000
       269        90  TIP3      H1             14.0752880318      -33.2104559485      -19.7974800000  TIP3      90              0.0000000000
       270        90  TIP3      H2             13.5613177217      -34.5368300491      -19.2793500000  TIP3      90              0.0000000000
       271        91  TIP3      OH2            17.3341443188      -33.7411783738      -21.8234300000  TIP3      91              0.0000000000
       272        91  TIP3      H1             16.7779279444      -33.0504013298      -21.4633100000  TIP3      91              0.0000000000
       273        91  TIP3      H2             18.1439547745      -33.6861521229      -21.3160700000  TIP3      91              0.0000000000
       274        92  TIP3      OH2           -29.4556802834       24.5743417286      -21.8585700000  TIP3      92              0.0000000000
       275        92  TIP3      H1            -29.9964518366       23.8004773267      -22.0164700000  TIP3      92              0.0000000000
       276        92  TIP3      H2            -29.8508833343       24.9911074412      -21.0928300000  TIP3      92              0.0000000000
       277        93  TIP3      OH2           -27.3616296172       25.0073445724      -19.7377900000  TIP3      93              0.0000000000
       278        93  TIP3      H1            -27.8383229250       24.9109206111      -20.5622200000  TIP3      93              0.0000000000
       279        93  TIP3      H2            -27.8862946844       24.5243514534      -19.0992900000  TIP3      93              0.0000000000
       280        94  TIP3      OH2           -31.5114821427      -16.7798911481      -17.3299750000  TIP3      94              0.0000000000
       281        94  TIP3      H1            -32.0349149875      -16.0709287218      -16.9563150000  TIP3      94              0.0000000000
       282        94  TIP3      H2            -30.9630625490      -16.3523296383      -17.9877350000  TIP3      94              0.0000000000
       283        95  TIP3      OH2           -33.3785325402      -20.0681984732      -21.7773150000  TIP3      95              0.0000000000
       284        95  TIP3      H1            -34.2795146095      -20.1452049191      -21.4634150000  TIP3      95              0.0000000000
       285        95  TIP3      H2            -33.4194604631      -20.3417164140      -22.6936950000  TIP3      95              0.0000000000
       286        96  TIP3      OH2           -32.8723835117      -22.4519198197      -20.0251250000  TIP3      96              0.0000000000
       287        96  TIP3      H1            -32.5714602942      -22.2109062315      -20.9012450000  TIP3      96              0.0000000000
       288        96  TIP3      H2            -32.4716116728      -23.3053635809      -19.8600550000  TIP3      96              0.0000000000
       289        97  TIP3      OH2           -34.8237991684      -17.7985866267      -19.5528650000  TIP3      97              0.0000000000
       290        97  TIP3      H1            -34.6292333688      -18.5365136500      -18.9750750000  TIP3      97              0.0000000000
       291        97  TIP3      H2            -35.2388519223      -18.1961038220      -20.3183450000  TIP3      97              0.0000000000
       292        98  TIP3      OH2           -33.5201867687       37.0956223856      -19.3771450000  TIP3      98              0.0000000000
       293        98  TIP3      H1            -33.0612914634       36.3780460534      -19.8138750000  TIP3      98              0.0000000000
       294        98  TIP3      H2            -34.3403044081       36.7064769917      -19.0735150000  TIP3      98              0.0000000000
