* GENERATED BY CHARMM-GUI (HTTP://WWW.CHARMM-GUI.ORG) V3.7 ON FEB, 18. 2025. JOB
* GENERATES ION CONFORMATION USING MONTE-CARLO SIMULATION
*  DATE:     2/18/25     11:48: 2      CREATED BY USER: charmm-gui
*
       130  EXT
         1         1  SOD       SOD            20.5958863000       31.9447852000      -38.0985182000  IONS      1               1.0000000000
         2         2  SOD       SOD             3.7054208100      -35.6852436000      -53.2662784000  IONS      2               1.0000000000
         3         3  SOD       SOD            28.3039063000      -30.7527553000       64.3564731000  IONS      3               1.0000000000
         4         4  SOD       SOD             1.9337074800      -15.0789374000       45.0790600000  IONS      4               1.0000000000
         5         5  SOD       SOD            -0.1163005870       24.8982717000      -59.3729656000  IONS      5               1.0000000000
         6         6  SOD       SOD           -17.4581276000       13.7924633000      -68.6678370000  IONS      6               1.0000000000
         7         7  SOD       SOD           -16.5258242000       20.8428110000      -74.7853559000  IONS      7               1.0000000000
         8         8  SOD       SOD            -3.1563239900       -6.0320188800      -42.2945782000  IONS      8               1.0000000000
         9         9  SOD       SOD           -33.4708864000      -12.8127567000      -57.3768080000  IONS      9               1.0000000000
        10        10  SOD       SOD           -33.1775328000      -27.9473602000       74.1309022000  IONS      10              1.0000000000
        11        11  SOD       SOD            13.3286114000      -14.8089491000      -32.2208994000  IONS      11              1.0000000000
        12        12  SOD       SOD            11.4330209000       -7.9786953700      -59.5247851000  IONS      12              1.0000000000
        13        13  SOD       SOD            16.2127847000       11.0752413000       74.6866955000  IONS      13              1.0000000000
        14        14  SOD       SOD           -16.5882908000       10.6047524000       78.1228989000  IONS      14              1.0000000000
        15        15  SOD       SOD            30.3886626000        5.5488134800      -52.2583614000  IONS      15              1.0000000000
        16        16  SOD       SOD             7.8210412900       29.7191505000       46.2232557000  IONS      16              1.0000000000
        17        17  SOD       SOD            -8.9717730900       12.6479462000      -76.2622927000  IONS      17              1.0000000000
        18        18  SOD       SOD             0.8770311479        7.4580380078       49.0492784043  IONS      18              1.0000000000
        19        19  SOD       SOD           -31.1693371747        6.2355725058       26.1659409990  IONS      19              1.0000000000
        20        20  SOD       SOD            22.1386612000      -15.6072234000      -39.5127587000  IONS      20              1.0000000000
        21        21  SOD       SOD           -29.1085732000       31.6668978000      -33.2924987000  IONS      21              1.0000000000
        22        22  SOD       SOD            20.8404090000        6.1050820200       35.5933405000  IONS      22              1.0000000000
        23        23  SOD       SOD            34.1093082000       21.1352100000       78.7079896000  IONS      23              1.0000000000
        24        24  SOD       SOD            18.8531552000       19.2112766000       65.9479178000  IONS      24              1.0000000000
        25        25  SOD       SOD           -15.4362456000      -33.5423275000       38.3684514000  IONS      25              1.0000000000
        26        26  SOD       SOD           -31.3649463192      -14.4146593049       76.7760256026  IONS      26              1.0000000000
        27        27  SOD       SOD            -2.8167350700        8.8252294800       66.8367883000  IONS      27              1.0000000000
        28        28  SOD       SOD            22.1752755000       -1.5120794900      -21.3629141000  IONS      28              1.0000000000
        29        29  SOD       SOD           -15.1526470000       26.9892181000      -62.9044291000  IONS      29              1.0000000000
        30        30  SOD       SOD            27.5019143000      -25.1367168000       30.5393373000  IONS      30              1.0000000000
        31        31  SOD       SOD           -27.3652708000      -18.4280236000       26.8503866000  IONS      31              1.0000000000
        32        32  SOD       SOD            27.7967565000       23.4551053000       65.1282736000  IONS      32              1.0000000000
        33        33  SOD       SOD            14.1179810000       13.2469309000       64.4885034000  IONS      33              1.0000000000
        34        34  SOD       SOD             8.8567590124      -31.9479037183       72.6166501031  IONS      34              1.0000000000
        35        35  SOD       SOD           -35.9606854000      -19.7949985000       29.4521126000  IONS      35              1.0000000000
        36        36  SOD       SOD            10.2605935000       30.7105697000      -74.5286373000  IONS      36              1.0000000000
        37        37  SOD       SOD           -11.7519240000        4.3481178700      -57.6666539000  IONS      37              1.0000000000
        38        38  SOD       SOD           -14.8628380000      -22.3074234000       71.1317797000  IONS      38              1.0000000000
        39        39  SOD       SOD           -32.5302937111      -20.8947145136      -32.2148607532  IONS      39              1.0000000000
        40        40  SOD       SOD           -30.2771900000       18.8865475000       43.1669448000  IONS      40              1.0000000000
        41        41  SOD       SOD            17.7563278928      -35.7945439129       63.8184187135  IONS      41              1.0000000000
        42        42  SOD       SOD             7.2905619800      -33.8774389000      -46.2616971000  IONS      42              1.0000000000
        43        43  SOD       SOD            33.8145386000       12.0270240000      -36.6929614000  IONS      43              1.0000000000
        44        44  SOD       SOD            -9.5116241800       12.9558597000      -54.0837046000  IONS      44              1.0000000000
        45        45  SOD       SOD            16.1884401000        3.6291768900      -43.7398301000  IONS      45              1.0000000000
        46        46  SOD       SOD           -21.3539061000       34.2506279000       26.6189637000  IONS      46              1.0000000000
        47        47  SOD       SOD           -30.6634990000      -36.4884483000      -69.6018405000  IONS      47              1.0000000000
        48        48  SOD       SOD            -6.8314577300      -14.3769745000      -77.9475300000  IONS      48              1.0000000000
        49        49  SOD       SOD            32.5747945000       -8.5180089900      -26.5025922000  IONS      49              1.0000000000
        50        50  SOD       SOD           -11.9911830000        1.0446228200       71.9323386000  IONS      50              1.0000000000
        51        51  SOD       SOD            20.7724260000      -34.0310949000       75.3277059000  IONS      51              1.0000000000
        52        52  SOD       SOD             8.6944176600      -17.9169455000       55.1499339000  IONS      52              1.0000000000
        53        53  SOD       SOD           -31.4414948000       -8.3239849300      -26.0180235000  IONS      53              1.0000000000
        54        54  SOD       SOD            -4.1224397818      -16.7814218055       58.2217704507  IONS      54              1.0000000000
        55        55  SOD       SOD            26.4734360000        2.6758452900       51.7950205000  IONS      55              1.0000000000
        56        56  SOD       SOD            22.4331511000       21.5658514000      -55.3928653000  IONS      56              1.0000000000
        57        57  SOD       SOD           -30.1220222000      -16.1010695000      -66.6002983000  IONS      57              1.0000000000
        58        58  SOD       SOD            17.9765254000      -35.8905732000      -76.5559880000  IONS      58              1.0000000000
        59        59  SOD       SOD            17.4361046000       -6.4294117600      -71.9995123000  IONS      59              1.0000000000
        60        60  SOD       SOD           -32.7023749000      -15.2979977000      -76.5966915000  IONS      60              1.0000000000
        61        61  SOD       SOD            22.6255954000       -1.5510045400       66.0339000000  IONS      61              1.0000000000
        62        62  SOD       SOD           -12.7483769000        2.5387552700       29.6546984000  IONS      62              1.0000000000
        63        63  SOD       SOD           -16.5844967000        6.0730225300       75.0400707000  IONS      63              1.0000000000
        64        64  SOD       SOD            28.3107187659        9.1568528906      -42.5960778781  IONS      64              1.0000000000
        65        65  SOD       SOD           -16.2196149000       -6.6036225700      -27.9414925000  IONS      65              1.0000000000
        66        66  SOD       SOD           -10.9227297000      -24.6065905000       78.8351126000  IONS      66              1.0000000000
        67        67  SOD       SOD           -16.9159417000       -2.8838552300       30.6320482000  IONS      67              1.0000000000
        68        68  SOD       SOD             8.1012837300        7.7590604900      -74.9960275000  IONS      68              1.0000000000
        69        69  SOD       SOD           -18.7318110000      -24.0021228000       29.0562346000  IONS      69              1.0000000000
        70        70  SOD       SOD            12.8705367000      -26.5735513000      -57.8214846000  IONS      70              1.0000000000
        71        71  SOD       SOD            -0.3785412180       11.7024627000      -76.0504345000  IONS      71              1.0000000000
        72        72  SOD       SOD           -23.2686495000        4.2353293500       70.6763059000  IONS      72              1.0000000000
        73        73  SOD       SOD           -33.3774922976        1.4681684288       23.5030523011  IONS      73              1.0000000000
        74        74  SOD       SOD            22.9030425000        9.9476752400       59.6466907000  IONS      74              1.0000000000
        75        75  SOD       SOD            -3.9984307600      -34.2997669000      -56.2493923000  IONS      75              1.0000000000
        76        76  SOD       SOD           -17.2187892000        9.4984898200       36.1325446000  IONS      76              1.0000000000
        77        77  SOD       SOD            30.2686744000        0.2539809610      -35.5159578000  IONS      77              1.0000000000
        78        78  CLA       CLA             3.5135272000      -30.5621133000      -58.3018400000  IONS      78             -1.0000000000
        79        79  CLA       CLA           -19.2334227000      -10.7529827000       63.7168950000  IONS      79             -1.0000000000
        80        80  CLA       CLA           -22.8989727000      -24.6526536000      -68.1449820000  IONS      80             -1.0000000000
        81        81  CLA       CLA            34.3843917000      -11.8449896000      -74.8011508000  IONS      81             -1.0000000000
        82        82  CLA       CLA            -4.8286625200       33.4406195000       78.6435226000  IONS      82             -1.0000000000
        83        83  CLA       CLA            25.1772801000       10.7272807000      -36.9775723000  IONS      83             -1.0000000000
        84        84  CLA       CLA           -14.8559905000       18.8657721000      -37.5027221000  IONS      84             -1.0000000000
        85        85  CLA       CLA           -20.8088781000       10.9999466000      -32.5121574000  IONS      85             -1.0000000000
        86        86  CLA       CLA            21.9134876000      -31.2346755000       50.9203938000  IONS      86             -1.0000000000
        87        87  CLA       CLA            21.4234323000       10.0716893000       64.6257299000  IONS      87             -1.0000000000
        88        88  CLA       CLA            36.3412802000      -18.8311941000       57.8571749000  IONS      88             -1.0000000000
        89        89  CLA       CLA           -22.4314503000       30.1282827000       36.6944024000  IONS      89             -1.0000000000
        90        90  CLA       CLA            -5.8638844900       22.8175057000       43.4243846000  IONS      90             -1.0000000000
        91        91  CLA       CLA             3.1614117200      -29.6838431000       32.1703787000  IONS      91             -1.0000000000
        92        92  CLA       CLA            -4.3610326800       33.6783924000       35.5294077000  IONS      92             -1.0000000000
        93        93  CLA       CLA           -13.6459993000      -21.2756255000       39.6750730000  IONS      93             -1.0000000000
        94        94  CLA       CLA            -9.1465855700      -11.9586578000      -52.9796610000  IONS      94             -1.0000000000
        95        95  CLA       CLA           -31.7915464000       20.4705449000       52.3830030000  IONS      95             -1.0000000000
        96        96  CLA       CLA           -14.1706311000      -21.9702754000       61.2006294000  IONS      96             -1.0000000000
        97        97  CLA       CLA            18.6086679000       19.3193627000      -30.9808245000  IONS      97             -1.0000000000
        98        98  CLA       CLA            19.4445853000       19.6804856000      -75.4876819000  IONS      98             -1.0000000000
        99        99  CLA       CLA            22.5889030000       30.1342132000      -28.0307018000  IONS      99             -1.0000000000
       100       100  CLA       CLA           -31.6297159000       -6.2386429700      -60.5184462000  IONS      100            -1.0000000000
       101       101  CLA       CLA            32.7760197000      -14.4881915000      -56.4562096000  IONS      101            -1.0000000000
       102       102  CLA       CLA             9.6549443600      -11.5112292000       67.8555982000  IONS      102            -1.0000000000
       103       103  CLA       CLA           -11.7820845000      -24.6095585000      -45.5860653000  IONS      103            -1.0000000000
       104       104  CLA       CLA             3.6398234400      -19.6646831000       55.4129504000  IONS      104            -1.0000000000
       105       105  CLA       CLA           -27.0846804000       21.2264402000       39.0956498000  IONS      105            -1.0000000000
       106       106  CLA       CLA            13.4835611000      -11.8384736000       50.5143659000  IONS      106            -1.0000000000
       107       107  CLA       CLA            -5.7744753900        3.3943016100       76.1365256000  IONS      107            -1.0000000000
       108       108  CLA       CLA            12.9849855000       10.2434415000       53.8727811000  IONS      108            -1.0000000000
       109       109  CLA       CLA           -26.1124784000      -20.6266501000       23.0167278000  IONS      109            -1.0000000000
       110       110  CLA       CLA            25.2546141000        1.8608326200      -52.9578078000  IONS      110            -1.0000000000
       111       111  CLA       CLA           -12.3018524000      -22.7256818000      -56.9155490000  IONS      111            -1.0000000000
       112       112  CLA       CLA            -4.1925201100      -16.4712345000      -27.4878318000  IONS      112            -1.0000000000
       113       113  CLA       CLA           -26.6650487000      -27.8530365000      -22.8970710000  IONS      113            -1.0000000000
       114       114  CLA       CLA            18.3102337000       -1.2914456300      -23.5522160000  IONS      114            -1.0000000000
       115       115  CLA       CLA            32.8311527000       -0.3963426250      -79.8794748000  IONS      115            -1.0000000000
       116       116  CLA       CLA            17.2224401000       13.8443720000      -50.5615515000  IONS      116            -1.0000000000
       117       117  CLA       CLA            33.6846122000      -29.9182237000       53.0547597000  IONS      117            -1.0000000000
       118       118  CLA       CLA           -14.0851780000       11.9035162000       43.3452840000  IONS      118            -1.0000000000
       119       119  CLA       CLA            31.2333831000      -36.4749595000      -64.9176129000  IONS      119            -1.0000000000
       120       120  CLA       CLA             5.6750539200      -17.0809958000       57.8888512000  IONS      120            -1.0000000000
       121       121  CLA       CLA           -29.2418547000       24.8899195000       47.9265918000  IONS      121            -1.0000000000
       122       122  CLA       CLA           -27.3044498000       23.5259280000      -40.8487373000  IONS      122            -1.0000000000
       123       123  CLA       CLA            -6.6283890270       26.8547443992      -60.8063616187  IONS      123            -1.0000000000
       124       124  CLA       CLA             3.8599637200       -1.8959374800       70.7226429000  IONS      124            -1.0000000000
       125       125  CLA       CLA           -17.9206204000      -30.8790713000       78.8136270000  IONS      125            -1.0000000000
       126       126  CLA       CLA           -21.3425278000       34.2272041000       73.6791994000  IONS      126            -1.0000000000
       127       127  CLA       CLA             1.7776528963       33.6840083886       27.3075842023  IONS      127            -1.0000000000
       128       128  CLA       CLA             0.6445081260       22.3263491000      -71.2860113000  IONS      128            -1.0000000000
       129       129  CLA       CLA            -8.0539191900       -3.1308978100       49.4524942000  IONS      129            -1.0000000000
       130       130  CLA       CLA            -7.5374592900      -18.2248644000       25.7735515000  IONS      130            -1.0000000000
