* GENERATED BY CHARMM-GUI (HTTP://WWW.CHARMM-GUI.ORG) V3.7 ON FEB, 18. 2025. JOB
* GENERATES LIPID PACKING USING BIG SPHERES
*  DATE:     2/18/25     11:38:58      CREATED BY USER: charmm-gui
*
       192  EXT
         1         1  CHL1      POLO           28.0209267708       11.7285487696       12.0571009703  HEAD      1               0.0000000000
         2         2  CHL1      POLO           35.5778314404       13.1744706734       11.9990008415  HEAD      2               0.0000000000
         3         3  CHL1      POLO           -6.2539912040       19.9949158466       12.0921688814  HEAD      3               0.0000000000
         4         4  CHL1      POLO           33.7379722367        5.4883357178       12.0085200164  HEAD      4               0.0000000000
         5         5  CHL1      POLO           25.9953362158        4.1170481416       12.0119127094  HEAD      5               0.0000000000
         6         6  CHL1      POLO          -25.4555335018      -21.3326991018       12.1137726784  HEAD      6               0.0000000000
         7         7  CHL1      POLO            6.1259500656       36.2574909332       12.0986014687  HEAD      7               0.0000000000
         8         8  CHL1      POLO            8.8430306710      -29.1051714983       12.1205029442  HEAD      8               0.0000000000
         9         9  CHL1      POLO          -33.7977636571       -1.0907758253       12.0987781490  HEAD      9               0.0000000000
        10        10  CHL1      POLO          -33.1878738325      -22.4370908191       11.9782594278  HEAD      10              0.0000000000
        11        11  CHL1      POLO          -19.5514277649       25.3477446828       12.0633526428  HEAD      11              0.0000000000
        12        12  CHL1      POLO            2.9391976746       -0.8985554526       12.1454947347  HEAD      12              0.0000000000
        13        13  CHL1      POLO            1.1235825254       -9.6497254785       12.1236607560  HEAD      13              0.0000000000
        14        14  CHL1      POLO          -25.9090775259       11.4392653964       12.0881565173  HEAD      14              0.0000000000
        15        15  CHL1      POLO           -3.7197051866       27.3909418095       12.0187018910  HEAD      15              0.0000000000
        16        16  CHL1      POLO           15.8894192799       -5.4415429283       12.1793381328  HEAD      16              0.0000000000
        17        17  CHL1      POLO          -12.2548199077      -25.8988893848       12.0610299198  HEAD      17              0.0000000000
        18        18  CHL1      POLO           13.6401015234      -13.1139588080       12.1220467179  HEAD      18              0.0000000000
        19        19  CHL1      POLO          -31.5360562324        6.2971016452       12.0502108688  HEAD      19              0.0000000000
        20        20  CHL1      POLO           11.6229418612       30.2484557001       11.9712788693  HEAD      20              0.0000000000
        21        21  CHL1      POLO           11.2696421077      -21.3734474382       12.0138830666  HEAD      21              0.0000000000
        22        22  CHL1      POLO           26.7903086606       33.7625159716       12.0809171681  HEAD      22              0.0000000000
        23        23  CHL1      POLO            1.1707949359      -30.6638253571       11.8330963124  HEAD      23              0.0000000000
        24        24  CHL1      POLO           -1.5711948914       34.9316566369       11.9187018571  HEAD      24              0.0000000000
        25        25  CHL1      POLO           18.2315967211        2.3331916387       12.0608608621  HEAD      25              0.0000000000
        26        26  CHL1      POLO          -28.5547161982       -7.7108598105       12.0746882854  HEAD      26              0.0000000000
        27        27  CHL1      POLO           16.6264034303      -27.2409982925       11.9223601921  HEAD      27              0.0000000000
        28        28  CHL1      POLO           13.8671228546      -35.1624997987       11.9841355135  HEAD      28              0.0000000000
        29        29  POPC      POLO            3.9075480859       28.5972855813       11.9910042950  HEAD      29              0.0000000000
        30        30  POPC      POLO           29.0076579293       -9.8522303888       12.0228607468  HEAD      30              0.0000000000
        31        31  SLPC      POLO           34.3748207283       35.6804035168       11.9184867920  HEAD      31              0.0000000000
        32        32  SLPC      POLO           -2.8289346809        5.8172321474       11.9610762318  HEAD      32              0.0000000000
        33        33  SLPC      POLO           10.5656526825        0.7814426638       11.9019614505  HEAD      33              0.0000000000
        34        34  SLPC      POLO           24.5772151555       25.5869815715       12.0749429028  HEAD      34              0.0000000000
        35        35  SLPC      POLO           -1.6404481270      -17.3167938452       12.0505753040  HEAD      35              0.0000000000
        36        36  SLPC      POLO           30.0858361537       19.5787157507       11.9448427340  HEAD      36              0.0000000000
        37        37  SOPE      POLO           -0.6772044803       13.5493091267       11.9417499135  HEAD      37              0.0000000000
        38        38  SOPE      POLO           14.7039311887       16.4171866610       12.0474598839  HEAD      38              0.0000000000
        39        39  SOPE      POLO           18.9055943489      -19.3712409363       11.9137436459  HEAD      39              0.0000000000
        40        40  SOPE      POLO           20.3923976344       10.1304675637       12.1026841090  HEAD      40              0.0000000000
        41        41  SOPE      POLO           12.6096496513        8.7040120853       11.9389790993  HEAD      41              0.0000000000
        42        42  SOPE      POLO           -9.2988425700       33.7798935608       12.1170949035  HEAD      42              0.0000000000
        43        43  SAPI      POLO           21.3752357699      -11.5108222207       12.0107153407  HEAD      43              0.0000000000
        44        44  SAPI      POLO           21.5176921070      -33.3775183163       11.9327252593  HEAD      44              0.0000000000
        45        45  SAPC      POLO           -3.9771631193       -4.1191874232       11.9336536709  HEAD      45              0.0000000000
        46        46  SAPC      POLO           24.2424838293      -25.2212171387       11.9161098257  HEAD      46              0.0000000000
        47        47  SAPC      POLO           26.7204986138      -17.4333347099       12.0450736920  HEAD      47              0.0000000000
        48        48  SAPC      POLO            6.1535679500      -15.3791606044       11.9907027571  HEAD      48              0.0000000000
        49        49  SAPC      POLO          -25.4473351292       31.2967153106       11.9036584469  HEAD      49              0.0000000000
        50        50  SAPC      POLO          -17.1290677848       32.5546175318       12.1077809904  HEAD      50              0.0000000000
        51        51  SAPE      POLO           22.3181238300       17.9387507296       12.0519335209  HEAD      51              0.0000000000
        52        52  SAPE      POLO          -33.3059023306       29.8898830357       12.1309313421  HEAD      52              0.0000000000
        53        53  SAPE      POLO          -22.6683948869      -34.5686553599       12.0293405058  HEAD      53              0.0000000000
        54        54  SAPE      POLO          -30.8101334066       16.8494601451       11.9768569542  HEAD      54              0.0000000000
        55        55  SAPE      POLO          -25.8883169435       -0.3429994783       11.9595524773  HEAD      55              0.0000000000
        56        56  SAPE      POLO           -4.2026028075      -24.6997443257       11.9527509227  HEAD      56              0.0000000000
        57        57  SAPE      POLO            9.3281177651       22.3833237215       12.0659156727  HEAD      57              0.0000000000
        58        58  SAPE      POLO           31.9752943588       28.0767136750       12.0696426470  HEAD      58              0.0000000000
        59        59  SAPE      POLO          -11.8305369805       -5.7291571667       12.0289887124  HEAD      59              0.0000000000
        60        60  SAPE      POLO           31.9312576026      -23.7004024721       11.9748987513  HEAD      60              0.0000000000
        61        61  SAPE      POLO          -17.5227408891      -19.9112996988       11.8360050127  HEAD      61              0.0000000000
        62        62  SAPE      POLO          -27.8809863427      -28.6096155692       12.0032016014  HEAD      62              0.0000000000
        63        63  SAPE      POLO          -14.9693083598      -12.5932579877       12.0120955268  HEAD      63              0.0000000000
        64        64  SAPE      POLO          -35.8349584555       22.4416967493       12.1419133787  HEAD      64              0.0000000000
        65        65  SAPS      POLO          -36.0394305906      -29.7858378547       11.9024089361  HEAD      65              0.0000000000
        66        66  SAPS      POLO           19.2850054877       31.7805790929       11.9085356346  HEAD      66              0.0000000000
        67        67  SAPS      POLO           23.5792983608       -3.7041151388       12.0570964253  HEAD      67              0.0000000000
        68        68  SAPS      POLO           16.9101964947       24.0323463047       11.9237406180  HEAD      68              0.0000000000
        69        69  SAPS      POLO          -36.2339545915       -8.5871675972       11.8636316158  HEAD      69              0.0000000000
        70        70  SAPS      POLO            4.8878298134        6.9077900789       11.8989301636  HEAD      70              0.0000000000
        71        71  SAPS      POLO           29.2710954946      -31.3277270636       11.9887808684  HEAD      71              0.0000000000
        72        72  SAPS      POLO            6.8744563370       14.6070732084       11.9569084571  HEAD      72              0.0000000000
        73        73  SAPS      POLO           -8.8799158464        1.3713644751       12.0404580563  HEAD      73              0.0000000000
        74        74  SAPS      POLO          -11.4718171287       26.4154150380       12.0845288078  HEAD      74              0.0000000000
        75        75  OSM       POLO          -21.3181546024        5.7852540906       12.0938267282  HEAD      75              0.0000000000
        76        76  OSM       POLO          -18.1001581242       12.9538608812       11.9176634519  HEAD      76              0.0000000000
        77        77  OSM       POLO            1.5412166546       21.1198953551       11.9330315264  HEAD      77              0.0000000000
        78        78  OSM       POLO           -8.6207576322       12.5697114153       11.9683677916  HEAD      78              0.0000000000
        79        79  OSM       POLO          -22.9118442816       18.5850704947       12.0737202926  HEAD      79              0.0000000000
        80        80  OSM       POLO           -6.8170966993      -31.9260768317       11.8642790694  HEAD      80              0.0000000000
        81        81  OSM       POLO          -16.8002977784       -0.0889741874       11.9965518588  HEAD      81              0.0000000000
        82        82  OSM       POLO           34.4434359271      -16.0323537783       12.0818624569  HEAD      82              0.0000000000
        83        83  OSM       POLO          -23.0624861067      -13.8620855645       11.9624529861  HEAD      83              0.0000000000
        84        84  OSM       POLO            3.7127181965      -23.0848070671       12.1318288149  HEAD      84              0.0000000000
        85        85  OSM       POLO            8.3432458157       -6.9800241343       11.9558498752  HEAD      85              0.0000000000
        86        86  OSM       POLO          -13.5888788033        6.9993201161       11.9596674465  HEAD      86              0.0000000000
        87        87  OSM       POLO          -30.9167050626      -15.0442048291       11.9763021325  HEAD      87              0.0000000000
        88        88  OSM       POLO          -30.7622238606      -35.7429784552       12.1278815502  HEAD      88              0.0000000000
        89        89  OSM       POLO           -6.6314195624      -11.5071226273       12.1486280239  HEAD      89              0.0000000000
        90        90  OSM       POLO           31.3969518550       -2.2328559385       12.1762193353  HEAD      90              0.0000000000
        91        91  OSM       POLO          -14.8338956606      -33.1831872364       12.0763838324  HEAD      91              0.0000000000
        92        92  OSM       POLO          -14.0263182484       19.1747643991       11.8701876018  HEAD      92              0.0000000000
        93        93  OSM       POLO          -28.0543359678       24.2566133938       11.9590031445  HEAD      93              0.0000000000
        94        94  OSM       POLO          -20.5318659094       -6.5957749952       11.9802319472  HEAD      94              0.0000000000
        95        95  OSM       POLO           -9.5077385107      -18.5866633072       12.0808543609  HEAD      95              0.0000000000
        96        96  OSM       POLO          -20.0533169091      -27.2542567444       11.9380239517  HEAD      96              0.0000000000
        97        97  CHL1      POLO          -16.5383653703      -15.2485670508      -11.9750587246  HEAD      97              0.0000000000
        98        98  CHL1      POLO           23.0515194979       -5.1604011260      -11.9439994020  HEAD      98              0.0000000000
        99        99  CHL1      POLO          -16.2932391430       16.8684345425      -12.0169313935  HEAD      99              0.0000000000
       100       100  CHL1      POLO          -36.4710551765      -20.5418835526      -12.0074629046  HEAD      100             0.0000000000
       101       101  CHL1      POLO           16.8880402287      -33.7046553072      -11.9639509965  HEAD      101             0.0000000000
       102       102  CHL1      POLO           -9.6524098225       21.3482458387      -11.9708734736  HEAD      102             0.0000000000
       103       103  CHL1      POLO          -36.1506461751       36.2979349440      -11.8964043114  HEAD      103             0.0000000000
       104       104  CHL1      POLO          -30.8995721215        0.6109653977      -12.0495975025  HEAD      104             0.0000000000
       105       105  CHL1      POLO          -23.1346632337       28.7724683744      -11.9522349559  HEAD      105             0.0000000000
       106       106  CHL1      POLO           22.7889117692      -12.9713064596      -12.1258482230  HEAD      106             0.0000000000
       107       107  CHL1      POLO          -16.5083555516        8.6907766933      -11.8945543807  HEAD      107             0.0000000000
       108       108  CHL1      POLO           -9.6444185108       13.1090144768      -11.9042699492  HEAD      108             0.0000000000
       109       109  CHL1      POLO           10.0064639509      -14.2097568181      -12.0764544299  HEAD      109             0.0000000000
       110       110  CHL1      POLO          -23.0756158577      -19.5647933597      -11.8672720150  HEAD      110             0.0000000000
       111       111  CHL1      POLO          -16.4024709689        0.8076649540      -12.0494783195  HEAD      111             0.0000000000
       112       112  CHL1      POLO           30.9421184863        6.8342371973      -11.9428568955  HEAD      112             0.0000000000
       113       113  CHL1      POLO           29.8989469960       -0.9752993369      -12.1137184630  HEAD      113             0.0000000000
       114       114  CHL1      POLO           29.9763751628       23.5392985404      -11.9987941736  HEAD      114             0.0000000000
       115       115  CHL1      POLO           -9.9017878669      -10.8670678886      -12.0469015653  HEAD      115             0.0000000000
       116       116  CHL1      POLO           -3.3680451790       34.0553243601      -11.9757962290  HEAD      116             0.0000000000
       117       117  CHL1      POLO            3.6747554450       14.0022013081      -12.0760268506  HEAD      117             0.0000000000
       118       118  CHL1      POLO            3.5645298356       22.2157802791      -11.9584148761  HEAD      118             0.0000000000
       119       119  CHL1      POLO           16.9275552519       22.8279239640      -12.0069915528  HEAD      119             0.0000000000
       120       120  CHL1      POLO          -16.5532292714      -31.4435792009      -12.0452111362  HEAD      120             0.0000000000
       121       121  CHL1      POLO           23.5447326612        3.0010048089      -11.9214944840  HEAD      121             0.0000000000
       122       122  CHL1      POLO          -16.9137121241       33.4821318500      -12.0055054293  HEAD      122             0.0000000000
       123       123  CHL1      POLO           16.5160544074       -1.3289245899      -11.8695409628  HEAD      123             0.0000000000
       124       124  CHL1      POLO          -29.8263430021       24.2010447318      -11.9692331697  HEAD      124             0.0000000000
       125       125  POPC      POLO           10.1352078149        2.2690105617      -11.9442134821  HEAD      125             0.0000000000
       126       126  POPC      POLO           -9.9465970133       29.5853367445      -12.1387014550  HEAD      126             0.0000000000
       127       127  SLPC      POLO          -23.1256699027      -11.4133299285      -12.1152819791  HEAD      127             0.0000000000
       128       128  SLPC      POLO          -23.3978265385      -27.9459385334      -11.9340388471  HEAD      128             0.0000000000
       129       129  SLPC      POLO           30.3860560910      -25.0866271809      -11.9929539824  HEAD      129             0.0000000000
       130       130  SLPC      POLO           23.6042872776      -21.4166624746      -11.9703042033  HEAD      130             0.0000000000
       131       131  SLPC      POLO           -9.8821426711      -27.1550574773      -11.9926501851  HEAD      131             0.0000000000
       132       132  SLPC      POLO           36.4150636088       -4.5151069316      -12.1008442631  HEAD      132             0.0000000000
       133       133  SOPE      POLO           30.1278432909       15.2768406917      -11.9698423654  HEAD      133             0.0000000000
       134       134  SOPE      POLO           10.1982695732      -30.2220871368      -11.9369714154  HEAD      134             0.0000000000
       135       135  SOPE      POLO            3.4276225535      -26.7467513737      -12.0363291382  HEAD      135             0.0000000000
       136       136  SOPE      POLO           -3.3390035618      -31.1101564029      -12.1711432317  HEAD      136             0.0000000000
       137       137  SOPE      POLO           10.0922596081       34.7651890019      -12.0203119705  HEAD      137             0.0000000000
       138       138  SOPE      POLO            4.4534076743       -2.9060188484      -11.9794750884  HEAD      138             0.0000000000
       139       139  SAPI      POLO          -29.6239468757       16.2064042388      -11.9518163498  HEAD      139             0.0000000000
       140       140  SAPI      POLO          -29.6950759379      -15.8692741941      -11.9871951556  HEAD      140             0.0000000000
       141       141  SAPC      POLO          -16.3749253235       25.0933228786      -11.9219532593  HEAD      141             0.0000000000
       142       142  SAPC      POLO           29.6730701840      -16.6932256433      -11.7841963033  HEAD      142             0.0000000000
       143       143  SAPC      POLO           10.1873604865       26.7215029898      -12.0796839601  HEAD      143             0.0000000000
       144       144  SAPC      POLO          -10.0260537246      -35.2862115123      -11.9227350680  HEAD      144             0.0000000000
       145       145  SAPC      POLO            3.6211401861        5.9154042891      -12.0130501058  HEAD      145             0.0000000000
       146       146  SAPC      POLO           -3.1190136605       25.8667721034      -12.1278269285  HEAD      146             0.0000000000
       147       147  SAPE      POLO           -3.0179678628       17.5536960170      -12.1627406492  HEAD      147             0.0000000000
       148       148  SAPE      POLO           16.7361271226      -25.6544373853      -11.9528107784  HEAD      148             0.0000000000
       149       149  SAPE      POLO           -9.5784382019        4.9203531853      -11.9047260072  HEAD      149             0.0000000000
       150       150  SAPE      POLO          -36.4727236240       27.9127557511      -11.9981484690  HEAD      150             0.0000000000
       151       151  SAPE      POLO          -23.2973624589        4.4625624443      -12.0672639777  HEAD      151             0.0000000000
       152       152  SAPE      POLO           30.1475471958       31.8463840325      -11.9546758769  HEAD      152             0.0000000000
       153       153  SAPE      POLO            3.3479971537      -34.6718471370      -12.1639228016  HEAD      153             0.0000000000
       154       154  SAPE      POLO           -2.9887689277       -6.7254281958      -12.0771018326  HEAD      154             0.0000000000
       155       155  SAPE      POLO           23.4635766272      -29.4737499223      -11.9553115021  HEAD      155             0.0000000000
       156       156  SAPE      POLO           23.4337346491       27.2659056080      -12.0957833193  HEAD      156             0.0000000000
       157       157  SAPE      POLO           29.6671853728       -8.9684446951      -12.0729821677  HEAD      157             0.0000000000
       158       158  SAPE      POLO           36.4312680446      -12.5265770969      -11.9924633023  HEAD      158             0.0000000000
       159       159  SAPE      POLO          -35.3142106007      -28.9292964592      -11.9980084618  HEAD      159             0.0000000000
       160       160  SAPE      POLO           -3.2588329569      -14.7947162847      -11.9373480538  HEAD      160             0.0000000000
       161       161  SAPS      POLO          -16.5800476019      -23.4916734700      -12.1032688824  HEAD      161             0.0000000000
       162       162  SAPS      POLO           10.4007304643       10.4566087897      -12.0047688486  HEAD      162             0.0000000000
       163       163  SAPS      POLO          -24.0870129394      -35.6161162315      -12.0268143508  HEAD      163             0.0000000000
       164       164  SAPS      POLO           -2.4854895966        1.1116686503      -12.0444217916  HEAD      164             0.0000000000
       165       165  SAPS      POLO          -22.9050711220       12.6429028207      -12.1078770962  HEAD      165             0.0000000000
       166       166  SAPS      POLO            3.5499837272      -10.3998112091      -11.8972554332  HEAD      166             0.0000000000
       167       167  SAPS      POLO          -23.5782185661       -3.3520228901      -11.8860248976  HEAD      167             0.0000000000
       168       168  SAPS      POLO          -29.9625589434       -7.8298100275      -11.9678530679  HEAD      168             0.0000000000
       169       169  SAPS      POLO           -9.7917228842       -3.0077878803      -11.8576270595  HEAD      169             0.0000000000
       170       170  SAPS      POLO           23.6138909718       35.5044772535      -12.0449911893  HEAD      170             0.0000000000
       171       171  OSM       POLO           16.8741862920      -17.7403963167      -12.0060638440  HEAD      171             0.0000000000
       172       172  OSM       POLO           16.8293678521        6.5056180064      -12.0505290114  HEAD      172             0.0000000000
       173       173  OSM       POLO           -9.8977266716      -19.0681766047      -12.0725044518  HEAD      173             0.0000000000
       174       174  OSM       POLO            3.4666948416       30.3305168919      -11.9578962351  HEAD      174             0.0000000000
       175       175  OSM       POLO           16.9366537269       14.6815953885      -12.0214189447  HEAD      175             0.0000000000
       176       176  OSM       POLO           15.6731330950       -8.9333659888      -12.0360827211  HEAD      176             0.0000000000
       177       177  OSM       POLO          -29.6864362148        8.2097226289      -11.9321415149  HEAD      177             0.0000000000
       178       178  OSM       POLO           30.2675821879      -33.0199248355      -12.0675689227  HEAD      178             0.0000000000
       179       179  OSM       POLO           16.7987485698       31.0678804549      -12.1439050907  HEAD      179             0.0000000000
       180       180  OSM       POLO          -23.0095382708       20.6522573895      -11.9372663683  HEAD      180             0.0000000000
       181       181  OSM       POLO          -29.6706229970      -23.8019026911      -12.0976682144  HEAD      181             0.0000000000
       182       182  OSM       POLO            9.9824182122      -22.2144433997      -11.9931655520  HEAD      182             0.0000000000
       183       183  OSM       POLO          -36.2495511437       11.7580635418      -11.9951820654  HEAD      183             0.0000000000
       184       184  OSM       POLO           -3.3295830323      -22.9685937488      -11.7400138422  HEAD      184             0.0000000000
       185       185  OSM       POLO            3.2462581252      -18.5944037686      -11.8747265417  HEAD      185             0.0000000000
       186       186  OSM       POLO           23.6289597162       10.7729875480      -12.0295918358  HEAD      186             0.0000000000
       187       187  OSM       POLO           23.5181879276       18.9799449957      -11.9993290528  HEAD      187             0.0000000000
       188       188  OSM       POLO           -3.0099303753        9.4722805124      -12.0567750932  HEAD      188             0.0000000000
       189       189  OSM       POLO          -36.4704442706       19.8445442242      -12.0094555223  HEAD      189             0.0000000000
       190       190  OSM       POLO          -29.8851314521       32.3295709196      -12.0039063498  HEAD      190             0.0000000000
       191       191  OSM       POLO           10.1904319287       18.4312486002      -11.9060122948  HEAD      191             0.0000000000
       192       192  OSM       POLO          -16.6918878500       -7.1473853142      -11.9950533877  HEAD      192             0.0000000000
